! TOUCHSTONE file generated by CST MICROWAVE STUDIO
! Date and time: Thu Apr 20 23:39:49 2023
! Project name: airline_sim.cst
! Header version: 2018
! Port assignment regex: !\s*Touchstone port\s*([0-9]+)\s*=\s*(CST MWS port|CST DS port)\s*([0-9]+|Zmin|Zmax)\s*\(\"(.*)\"\)(\s*mode\s*([0-9]+))?.*
! Touchstone port assignment:
! Touchstone port 1 = CST MWS port 1 ("")
! Touchstone port 2 = CST MWS port 2 ("")
# GHz S MA R 50
2.5                  0.257389831     -119.785799      0.966307698     -29.7130851      0.966307238     -29.7130928      0.257389634     -119.640242
2.51                 0.258283576      -119.89904      0.966069376     -29.8266804      0.966069097     -29.8266873       0.25828336     -119.754148
2.52                 0.259175836     -120.012239      0.965830394     -29.9402188      0.965830394      -29.940225        0.2591756     -119.868007
2.53                 0.260066596       -120.1254      0.965590908     -30.0537001      0.965590908     -30.0537055      0.260066342     -119.981824
2.54                 0.260955896     -120.238507      0.965350937     -30.1671251      0.965350937     -30.1671298      0.260955624     -120.095582
2.55                 0.261843732     -120.351559      0.965110484     -30.2804939      0.965110484     -30.2804978      0.261843442     -120.209281
2.56                 0.262730102     -120.464558      0.964869553     -30.3938062      0.964869553     -30.3938094      0.262729795     -120.322921
2.57                 0.263615002     -120.577502       0.96462815     -30.5070621       0.96462815     -30.5070645      0.263614679     -120.436503
2.58                 0.264498431     -120.690391      0.964386278     -30.6202613      0.964386278     -30.6202631      0.264498092     -120.550025
2.59                 0.265380386     -120.803226      0.964143942     -30.7334039      0.964143942     -30.7334049       0.26538003     -120.663488
2.6                  0.266260863     -120.916006      0.963901146     -30.8464897      0.963901146       -30.84649      0.266260492     -120.776892
2.61                  0.26713986     -121.028732      0.963657896     -30.9595186      0.963657896     -30.9595183      0.267139475     -120.890237
2.62                 0.268017376     -121.141402      0.963414194     -31.0724905      0.963414194     -31.0724895      0.268016976     -121.003522
2.63                 0.268893407     -121.254017      0.963170046     -31.1854053      0.963170046     -31.1854037      0.268892993     -121.116749
2.64                  0.26976795     -121.366577      0.962925456      -31.298263      0.962925456     -31.2982608      0.269767523     -121.229915
2.65                 0.270641003     -121.479082      0.962680429     -31.4110635      0.962680429     -31.4110606      0.270640563     -121.343022
2.66                 0.271512565     -121.591531      0.962434968     -31.5238066      0.962434968     -31.5238031      0.271512112      -121.45607
2.67                 0.272382631     -121.703925      0.962189079     -31.6364922      0.962189079     -31.6364882      0.272382166     -121.569058
2.68                 0.273251201     -121.816263      0.961942766     -31.7491204      0.961942766     -31.7491158      0.273250724     -121.681986
2.69                 0.274118271     -121.928545      0.961696032     -31.8616909      0.961696032     -31.8616858      0.274117782     -121.794855
2.7                  0.274983839     -122.040771      0.961448883     -31.9742038      0.961448883     -31.9741981      0.274983339     -121.907664
2.71                 0.275847903     -122.152942      0.961201323     -32.0866589      0.961201323     -32.0866526      0.275847392     -122.020413
2.72                  0.27671046     -122.265056      0.960953357     -32.1990562      0.960953357     -32.1990494      0.276709939     -122.133102
2.73                 0.277571508     -122.377115      0.960704988     -32.3113955      0.960704988     -32.3113882      0.277570977     -122.245731
2.74                 0.278431046     -122.489117      0.960456221     -32.4236768      0.960456221      -32.423669      0.278430505       -122.3583
2.75                  0.27928907     -122.601062       0.96020706     -32.5359001       0.96020706     -32.5358917      0.279288519     -122.470809
2.76                 0.280145578     -122.712952      0.959957511     -32.6480651      0.959957511     -32.6480563      0.280145019     -122.583258
2.77                 0.281000569     -122.824784      0.959707577      -32.760172      0.959707577     -32.7601626            0.281     -122.695647
2.78                 0.281854039      -122.93656      0.959457262     -32.8722205      0.959457262     -32.8722107      0.281853463     -122.807975
2.79                 0.282705988      -123.04828      0.959206572     -32.9842106      0.959206572     -32.9842003      0.282705403     -122.920243
2.8                  0.283556412     -123.159942       0.95895551     -33.0961422       0.95895551     -33.0961315       0.28355582     -123.032451
2.81                  0.28440531     -123.271548      0.958704081     -33.2080153      0.958704081     -33.2080042       0.28440471     -123.144599
2.82                  0.28525268     -123.383097       0.95845229     -33.3198298       0.95845229     -33.3198183      0.285252073     -123.256686
2.83                 0.286098519     -123.494589      0.958200139     -33.4315856      0.958200139     -33.4315737      0.286097905     -123.368712
2.84                 0.286942826     -123.606023      0.957947635     -33.5432827      0.957947635     -33.5432703      0.286942205     -123.480678
2.85                 0.287785598       -123.7174      0.957694781      -33.654921      0.957694781     -33.6549082      0.287784971     -123.592583
2.86                 0.288626834      -123.82872      0.957441582     -33.7665003      0.957441582     -33.7664872      0.288626201     -123.704428
2.87                 0.289466532     -123.939983      0.957188042     -33.8780207      0.957188042     -33.8780072      0.289465893     -123.816212
2.88                 0.290304689     -124.051188      0.956934166     -33.9894821      0.956934166     -33.9894683      0.290304045     -123.927935
2.89                 0.291141305     -124.162335      0.956679957     -34.1008845      0.956679957     -34.1008702      0.291140655     -124.039598
2.9                  0.291976376     -124.273425       0.95642542     -34.2122277       0.95642542     -34.2122131      0.291975721     -124.151199
2.91                 0.292809901     -124.384458       0.95617056     -34.3235117       0.95617056     -34.3234967      0.292809241      -124.26274
2.92                 0.293641878     -124.495432      0.955915381     -34.4347364      0.955915381     -34.4347212      0.293641214      -124.37422
2.93                 0.294472306     -124.606349      0.955659887     -34.5459018      0.955659887     -34.5458863      0.294471638     -124.485639
2.94                 0.295301182     -124.717207      0.955404083     -34.6570078      0.955404083      -34.656992       0.29530051     -124.596997
2.95                 0.296128506     -124.828008      0.955147972     -34.7680544      0.955147972     -34.7680383       0.29612783     -124.708294
2.96                 0.296954274      -124.93875      0.954891559     -34.8790416      0.954891559     -34.8790251      0.296953595     -124.819529
2.97                 0.297778486     -125.049435       0.95463485     -34.9899691       0.95463485     -34.9899524      0.297777803     -124.930704
2.98                  0.29860114     -125.160061      0.954377846     -35.1008371      0.954377846     -35.1008201      0.298600454     -125.041818
2.99                 0.299422234     -125.270629      0.954120554     -35.2116454      0.954120554     -35.2116281      0.299421545      -125.15287
3                    0.300241766     -125.381139      0.953862978      -35.322394      0.953862978     -35.3223765      0.300241074     -125.263861
3.01                 0.301059735      -125.49159      0.953605121     -35.4330829      0.953605121     -35.4330651      0.301059041     -125.374791
3.02                  0.30187614     -125.601983      0.953346988     -35.5437119      0.953346988     -35.5436939      0.301875443      -125.48566
3.03                 0.302690978     -125.712317      0.953088584     -35.6542811      0.953088584     -35.6542629      0.302690279     -125.596467
3.04                 0.303504248     -125.822593      0.952829912     -35.7647904      0.952829912      -35.764772      0.303503547     -125.707213
3.05                 0.304315948      -125.93281      0.952570977     -35.8752398      0.952570977     -35.8752211      0.304315246     -125.817897
3.06                 0.305126078     -126.042968      0.952311784     -35.9856292      0.952311784     -35.9856103      0.305125374     -125.928521
3.07                 0.305934635     -126.153068      0.952052336     -36.0959585      0.952052336     -36.0959395       0.30593393     -126.039082
3.08                 0.306741619     -126.263109      0.951792637     -36.2062278      0.951792637     -36.2062085      0.306740912     -126.149582
3.09                 0.307547027     -126.373091      0.951532693     -36.3164369      0.951532693     -36.3164175      0.307546319     -126.260021
3.1                  0.308350858     -126.483014      0.951272507     -36.4265859      0.951272507     -36.4265663       0.30835015     -126.370398
3.11                 0.309153111     -126.592878      0.951012083     -36.5366747      0.951012083     -36.5366549      0.309152402     -126.480714
3.12                 0.309953785     -126.702683      0.950751427     -36.6467032      0.950751427     -36.6466833      0.309953075     -126.590968
3.13                 0.310752878     -126.812429      0.950490541     -36.7566715      0.950490541     -36.7566514      0.310752168      -126.70116
3.14                 0.311550389     -126.922116       0.95022943     -36.8665794       0.95022943     -36.8665592      0.311549678     -126.811291
3.15                 0.312346316     -127.031744      0.949968099      -36.976427      0.949968099     -36.9764067      0.312345606      -126.92136
3.16                 0.313140658     -127.141312      0.949706552     -37.0862142      0.949706552     -37.0861937      0.313139948     -127.031368
3.17                 0.313933415     -127.250821      0.949444792      -37.195941      0.949444792     -37.1959204      0.313932705     -127.141314
3.18                 0.314724584     -127.360271      0.949182825     -37.3056074      0.949182825     -37.3055866      0.314723874     -127.251198
3.19                 0.315514165     -127.469662      0.948920654     -37.4152132      0.948920654     -37.4151924      0.315513455      -127.36102
3.2                  0.316302156     -127.578993      0.948658283     -37.5247586      0.948658283     -37.5247376      0.316301447     -127.470781
3.21                 0.317088556     -127.688265      0.948395717     -37.6342434      0.948395717     -37.6342223      0.317087848      -127.58048
3.22                 0.317873364     -127.797478       0.94813296     -37.7436676       0.94813296     -37.7436465      0.317872657     -127.690117
3.23                 0.318656578     -127.906631      0.947870016     -37.8530312      0.947870016       -37.85301      0.318655873     -127.799692
3.24                 0.319438199     -128.015724       0.94760689     -37.9623342       0.94760689     -37.9623129      0.319437494     -127.909205
3.25                 0.320218224     -128.124758      0.947343584     -38.0715766      0.947343584     -38.0715552      0.320217521     -128.018657
3.26                 0.320996653     -128.233732      0.947080104     -38.1807582      0.947080104     -38.1807368      0.320995951     -128.128047
3.27                 0.321773484     -128.342647      0.946816454     -38.2898792      0.946816454     -38.2898577      0.321772784     -128.237375
3.28                 0.322548717     -128.451502      0.946552638     -38.3989394      0.946552638     -38.3989179      0.322548018     -128.346641
3.29                  0.32332235     -128.560297       0.94628866     -38.5079389       0.94628866     -38.5079174      0.323321653     -128.455845
3.3                  0.324094382     -128.669033      0.946024524     -38.6168777      0.946024524     -38.6168561      0.324093688     -128.564987
3.31                 0.324864814     -128.777709      0.945760233     -38.7257556      0.945760233      -38.725734      0.324864121     -128.674068
3.32                 0.325633642     -128.886325      0.945495794     -38.8345728      0.945495794     -38.8345511      0.325632952     -128.783086
3.33                 0.326400867     -128.994881      0.945231208     -38.9433291      0.945231208     -38.9433074      0.326400179     -128.892043
3.34                 0.327166488     -129.103378      0.944966482     -39.0520246      0.944966482     -39.0520028      0.327165802     -129.000937
3.35                 0.327930504     -129.211814      0.944701618     -39.1606592      0.944701618     -39.1606375       0.32792982      -129.10977
3.36                 0.328692914     -129.320191       0.94443662     -39.2692329       0.94443662     -39.2692112      0.328692233     -129.218541
3.37                 0.329453717     -129.428508      0.944171493     -39.3777458      0.944171493     -39.3777241      0.329453038     -129.327249
3.38                 0.330212912     -129.536765      0.943906242     -39.4861978      0.943906242     -39.4861761      0.330212236     -129.435896
3.39                 0.330970498     -129.644962      0.943640869     -39.5945888      0.943640869     -39.5945671      0.330969825     -129.544481
3.4                  0.331726475     -129.753099      0.943375379      -39.702919      0.943375379     -39.7028973      0.331725805     -129.653004
3.41                 0.332480842     -129.861176      0.943109775     -39.8111882      0.943109775     -39.8111665      0.332480175     -129.761465
3.42                 0.333233598     -129.969193      0.942844063     -39.9193965      0.942844063     -39.9193748      0.333232934     -129.869864
3.43                 0.333984743      -130.07715      0.942578246     -40.0275438      0.942578246     -40.0275222      0.333984082     -129.978202
3.44                 0.334734275     -130.185047      0.942312328     -40.1356302      0.942312328     -40.1356086      0.334733618     -130.086477
3.45                 0.335482194     -130.292884      0.942046314     -40.2436556      0.942046314      -40.243634       0.33548154      -130.19469
3.46                   0.3362285     -130.400661      0.941780206       -40.35162      0.941780206     -40.3515985      0.336227849     -130.302842
3.47                 0.336973191     -130.508378      0.941514009     -40.4595235      0.941514009     -40.4595021      0.336972544     -130.410931
3.48                 0.337716267     -130.616034      0.941247727      -40.567366      0.941247727     -40.5673446      0.337715623     -130.518959
3.49                 0.338457728     -130.723631      0.940981365     -40.6751475      0.940981365     -40.6751262      0.338457088     -130.626924
3.5                  0.339197572     -130.831168      0.940714925     -40.7828681      0.940714925     -40.7828468      0.339196936     -130.734828
3.51                   0.3399358     -130.938644      0.940448412     -40.8905277      0.940448412     -40.8905065      0.339935167      -130.84267
3.52                  0.34067241      -131.04606       0.94018183     -40.9981262       0.94018183     -40.9981051      0.340671781      -130.95045
3.53                 0.341407402     -131.153417      0.939915183     -41.1056639      0.939915183     -41.1056428      0.341406777     -131.058168
3.54                 0.342140776     -131.260713      0.939648475     -41.2131405      0.939648475     -41.2131195      0.342140155     -131.165824
3.55                 0.342872531     -131.367949       0.93938171     -41.3205562       0.93938171     -41.3205353      0.342871914     -131.273418
3.56                 0.343602666     -131.475125      0.939114891     -41.4279109      0.939114891     -41.4278901      0.343602054      -131.38095
3.57                 0.344331182     -131.582241      0.938848022     -41.5352046      0.938848022     -41.5351839      0.344330573     -131.488421
3.58                 0.345058077     -131.689296      0.938581108     -41.6424374      0.938581108     -41.6424168      0.345057473      -131.59583
3.59                 0.345783351     -131.796292      0.938314153     -41.7496093      0.938314153     -41.7495888      0.345782751     -131.703177
3.6                  0.346507005     -131.903227      0.938047159     -41.8567202      0.938047159     -41.8566998      0.346506409     -131.810462
3.61                 0.347229036     -132.010102      0.937780132     -41.9637701      0.937780132     -41.9637499      0.347228445     -131.917685
3.62                 0.347949446     -132.116917      0.937513074     -42.0707592      0.937513074      -42.070739      0.347948859     -132.024847
3.63                 0.348668233     -132.223672      0.937245991     -42.1776873      0.937245991     -42.1776673       0.34866765     -132.131947
3.64                 0.349385397     -132.330367      0.936978885     -42.2845545      0.936978885     -42.2845346      0.349384819     -132.238985
3.65                 0.350100938     -132.437002       0.93671176     -42.3913609       0.93671176     -42.3913411      0.350100365     -132.345962
3.66                 0.350814856     -132.543577       0.93644462     -42.4981063       0.93644462     -42.4980866      0.350814287     -132.452876
3.67                  0.35152715     -132.650091       0.93617747     -42.6047909       0.93617747     -42.6047714      0.351526586     -132.559729
3.68                  0.35223782     -132.756546      0.935910313     -42.7114147      0.935910313     -42.7113953      0.352237261     -132.666521
3.69                 0.352946866      -132.86294      0.935643152     -42.8179776      0.935643152     -42.8179583      0.352946311     -132.773251
3.7                  0.353654287     -132.969275      0.935375991     -42.9244797      0.935375991     -42.9244605      0.353653737     -132.879919
3.71                 0.354360084     -133.075549      0.935108835      -43.030921      0.935108835      -43.030902      0.354359538     -132.986526
3.72                 0.355064255     -133.181763      0.934841687     -43.1373015      0.934841687     -43.1372827      0.355063715     -133.093071
3.73                 0.355766801     -133.287918      0.934574551     -43.2436213      0.934574551     -43.2436026      0.355766266     -133.199554
3.74                 0.356467722     -133.394012       0.93430743     -43.3498803       0.93430743     -43.3498617      0.356467192     -133.305976
3.75                 0.357167018     -133.500046      0.934040329     -43.4560786      0.934040329     -43.4560602      0.357166492     -133.412337
3.76                 0.357864687      -133.60602       0.93377325     -43.5622162       0.93377325     -43.5621979      0.357864167     -133.518636
3.77                 0.358560731     -133.711935      0.933506198     -43.6682931      0.933506198      -43.668275      0.358560216     -133.624874
3.78                 0.359255149     -133.817789      0.933239177     -43.7743094      0.933239177     -43.7742915      0.359254639      -133.73105
3.79                 0.359947941     -133.923583      0.932972189     -43.8802651      0.932972189     -43.8802473      0.359947436     -133.837165
3.8                  0.360639107     -134.029318       0.93270524     -43.9861601       0.93270524     -43.9861425      0.360638607     -133.943219
3.81                 0.361328646     -134.134992      0.932438332     -44.0919946      0.932438332     -44.0919771      0.361328151     -134.049212
3.82                 0.362016559     -134.240607      0.932171469     -44.1977685      0.932171469     -44.1977512      0.362016069     -134.155143
3.83                 0.362702846     -134.346162      0.931904655     -44.3034818      0.931904655     -44.3034647      0.362702361     -134.261013
3.84                 0.363387506     -134.451657      0.931637893     -44.4091347      0.931637893     -44.4091178      0.363387027     -134.366822
3.85                  0.36407054     -134.557092      0.931371187     -44.5147272      0.931371187     -44.5147104      0.364070066     -134.472569
3.86                 0.364751947     -134.662468      0.931104541     -44.6202592      0.931104541     -44.6202426      0.364751479     -134.578256
3.87                 0.365431728     -134.767784      0.930837959     -44.7257307      0.930837959     -44.7257143      0.365431265     -134.683881
3.88                 0.366109883      -134.87304      0.930571443     -44.8311419      0.930571443     -44.8311257      0.366109425     -134.789445
3.89                 0.366786411     -134.978236      0.930304998     -44.9364928      0.930304998     -44.9364768      0.366785959     -134.894949
3.9                  0.367461313     -135.083373      0.930038627     -45.0417834      0.930038627     -45.0417675      0.367460866     -135.000391
3.91                 0.368134589      -135.18845      0.929772334     -45.1470137      0.929772334      -45.146998      0.368134147     -135.105773
3.92                 0.368806239     -135.293467      0.929506121     -45.2521837      0.929506121     -45.2521683      0.368805802     -135.211093
3.93                 0.369476262     -135.398425      0.929239994     -45.3572935      0.929239994     -45.3572783      0.369475831     -135.316353
3.94                  0.37014466     -135.503323      0.928973955     -45.4623432      0.928973955     -45.4623282      0.370144234     -135.421552
3.95                 0.370811432     -135.608162      0.928708008     -45.5673328      0.928708008     -45.5673179      0.370811012      -135.52669
3.96                 0.371476578     -135.712941      0.928442157     -45.6722622      0.928442157     -45.6722476      0.371476163     -135.631767
3.97                 0.372140099     -135.817661      0.928176404     -45.7771316      0.928176404     -45.7771172       0.37213969     -135.736784
3.98                 0.372801994     -135.922322      0.927910754      -45.881941      0.927910754     -45.8819267      0.372801591      -135.84174
3.99                 0.373462265     -136.026923       0.92764521     -45.9866904       0.92764521     -45.9866764      0.373461866     -135.946636
4                     0.37412091     -136.131465      0.927379775     -46.0913799      0.927379775     -46.0913661      0.374120517     -136.051471
4.01                  0.37477793     -136.235947      0.927114453     -46.1960095      0.927114453     -46.1959958      0.374777543     -136.156245
4.02                 0.375433326      -136.34037      0.926849248     -46.3005792      0.926849248     -46.3005658      0.375432945     -136.260959
4.03                 0.376087098     -136.444734      0.926584162     -46.4050892      0.926584162     -46.4050759      0.376086722     -136.365613
4.04                 0.376739246     -136.549039      0.926319199     -46.5095394      0.926319199     -46.5095263      0.376738875     -136.470206
4.05                  0.37738977     -136.653285      0.926054364     -46.6139298      0.926054364      -46.613917      0.377389405     -136.574739
4.06                  0.37803867     -136.757471      0.925789658     -46.7182606      0.925789658      -46.718248       0.37803831     -136.679212
4.07                 0.378685947     -136.861599      0.925525086     -46.8225318      0.925525086     -46.8225194      0.378685593     -136.783624
4.08                 0.379331601     -136.965667       0.92526065     -46.9267434       0.92526065     -46.9267312      0.379331253     -136.887977
4.09                 0.379975633     -137.069677      0.924996355     -47.0308954      0.924996355     -47.0308835       0.37997529     -136.992269
4.1                  0.380618042     -137.173627      0.924732204      -47.134988      0.924732204     -47.1349763      0.380617705     -137.096501
4.11                 0.381258829     -137.277519        0.9244682     -47.2390212        0.9244682     -47.2390097      0.381258498     -137.200674
4.12                 0.381897995     -137.381352      0.924204346      -47.342995      0.924204346     -47.3429837      0.381897669     -137.304786
4.13                 0.382535539     -137.485126      0.923940646     -47.4469094      0.923940646     -47.4468984      0.382535219     -137.408838
4.14                 0.383171463     -137.588841      0.923677103     -47.5507646      0.923677103     -47.5507537      0.383171148     -137.512831
4.15                 0.383805766     -137.692498       0.92341372     -47.6545605       0.92341372     -47.6545499      0.383805457     -137.616764
4.16                 0.384438449     -137.796096      0.923150501     -47.7582973      0.923150501     -47.7582869      0.384438145     -137.720637
4.17                 0.385069512     -137.899636      0.922887449      -47.861975      0.922887449     -47.8619648      0.385069214      -137.82445
4.18                 0.385698956     -138.003116      0.922624568     -47.9655936      0.922624568     -47.9655836      0.385698663     -137.928204
4.19                 0.386326781     -138.106539      0.922361859     -48.0691531      0.922361859     -48.0691434      0.386326494     -138.031899
4.2                  0.386952987     -138.209903      0.922099328     -48.1726538      0.922099328     -48.1726443      0.386952706     -138.135534
4.21                 0.387577576     -138.313208      0.921836977     -48.2760955      0.921836977     -48.2760862      0.387577301     -138.239109
4.22                 0.388200547     -138.416456      0.921574809     -48.3794784      0.921574809     -48.3794694      0.388200277     -138.342625
4.23                 0.388821902     -138.519645      0.921312828     -48.4828025      0.921312828     -48.4827937      0.388821637     -138.446082
4.24                 0.389441639     -138.622775      0.921051037     -48.5860679      0.921051037     -48.5860593      0.389441381      -138.54948
4.25                 0.390059761     -138.725848      0.920789438     -48.6892746      0.920789438     -48.6892663      0.390059508     -138.652818
4.26                 0.390676267     -138.828862      0.920528036     -48.7924228      0.920528036     -48.7924146       0.39067602     -138.756098
4.27                 0.391291158     -138.931819      0.920266834     -48.8955123      0.920266834     -48.8955044      0.391290916     -138.859318
4.28                 0.391904435     -139.034717      0.920005834     -48.9985434      0.920005834     -48.9985358      0.391904199     -138.962479
4.29                 0.392516098     -139.137558      0.919745039     -49.1015161      0.919745039     -49.1015087      0.392515867     -139.065582
4.3                  0.393126147      -139.24034      0.919484454     -49.2044304      0.919484454     -49.2044232      0.393125922     -139.168625
4.31                 0.393734584     -139.343065      0.919224081     -49.3072865      0.919224081     -49.3072795      0.393734364      -139.27161
4.32                 0.394341408     -139.445732      0.918963923     -49.4100843      0.918963923     -49.4100775      0.394341194     -139.374536
4.33                 0.394946621     -139.548342      0.918703983     -49.5128239      0.918703983     -49.5128174      0.394946412     -139.477404
4.34                 0.395550223     -139.650893      0.918444265     -49.6155055      0.918444265     -49.6154992      0.395550019     -139.580213
4.35                 0.396152214     -139.753387      0.918184771      -49.718129      0.918184771     -49.7181229      0.396152016     -139.682963
4.36                 0.396752596     -139.855824      0.917925505     -49.8206945      0.917925505     -49.8206887      0.396752403     -139.785655
4.37                 0.397351368     -139.958203      0.917666469     -49.9232022      0.917666469     -49.9231966      0.397351181     -139.888289
4.38                 0.397948531     -140.060525      0.917407668      -50.025652      0.917407668     -50.0256466       0.39794835     -139.990864
4.39                 0.398544087      -140.16279      0.917149103      -50.128044      0.917149103     -50.1280389      0.398543911     -140.093381
4.4                  0.399138036     -140.264997      0.916890779     -50.2303784      0.916890779     -50.2303735      0.399137865      -140.19584
4.41                 0.399730377     -140.367147      0.916632697     -50.3326551      0.916632697     -50.3326504      0.399730212     -140.298241
4.42                 0.400321113      -140.46924      0.916374861     -50.4348743      0.916374861     -50.4348699      0.400320953     -140.400584
4.43                 0.400910244     -140.571276      0.916117275      -50.537036      0.916117275     -50.5370318      0.400910089     -140.502869
4.44                  0.40149777     -140.673255       0.91585994     -50.6391403       0.91585994     -50.6391363      0.401497621     -140.605096
4.45                 0.402083692     -140.775177       0.91560286     -50.7411872       0.91560286     -50.7411835      0.402083548     -140.707266
4.46                 0.402668011     -140.877042      0.915346038     -50.8431769      0.915346038     -50.8431734      0.402667873     -140.809378
4.47                 0.403250727     -140.978851      0.915089478     -50.9451094      0.915089478     -50.9451062      0.403250594     -140.911432
4.48                 0.403831842     -141.080602      0.914833181     -51.0469848      0.914833181     -51.0469818      0.403831714     -141.013428