! TOUCHSTONE file generated by CST MICROWAVE STUDIO
! Date and time: Fri Apr 21 17:05:46 2023
! Project name: airline_sim.cst
! Header version: 2018
! Port assignment regex: !\s*Touchstone port\s*([0-9]+)\s*=\s*(CST MWS port|CST DS port)\s*([0-9]+|Zmin|Zmax)\s*\(\"(.*)\"\)(\s*mode\s*([0-9]+))?.*
! Touchstone port assignment:
! Touchstone port 1 = CST MWS port 1 ("")
! Touchstone port 2 = CST MWS port 2 ("")
# GHz S MA R 50
2.5                  0.257389831     -119.785799      0.966307698     -29.7130851      0.966307238     -29.7130928      0.257389634     -119.640242
2.51                 0.258283596     -119.899032       0.96606952     -29.8266809      0.966069103     -29.8266879       0.25828338      -119.75414
2.52                 0.259175905     -120.012212      0.965830839     -29.9402208      0.965830465     -29.9402269       0.25917567     -119.867981
2.53                 0.260066754      -120.12534      0.965591662     -30.0537045      0.965591329     -30.0537098      0.260066501     -119.981764
2.54                 0.260956141     -120.238414      0.965351991     -30.1671319        0.9653517     -30.1671365       0.26095587     -120.095489
2.55                 0.261844063     -120.351435      0.965111832      -30.280503      0.965111581     -30.2805069      0.261843775     -120.209157
2.56                 0.262730517     -120.464403      0.964871189     -30.3938177      0.964870979     -30.3938209      0.262730213     -120.322766
2.57                 0.263615502     -120.577317      0.964630067     -30.5070759      0.964629896     -30.5070783      0.263615181     -120.436318
2.58                 0.264499013     -120.690178       0.96438847     -30.6202774      0.964388338     -30.6202791      0.264498676     -120.549812
2.59                 0.265381048     -120.802985      0.964146403     -30.7334222      0.964146309     -30.7334232      0.265380696     -120.663247
2.6                  0.266261605     -120.915738       0.96390387     -30.8465102      0.963903813     -30.8465105      0.266261239     -120.776624
2.61                 0.267140681     -121.028437      0.963660875     -30.9595412      0.963660856     -30.9595409      0.267140301     -120.889943
2.62                 0.268018274     -121.141082      0.963417424     -31.0725152      0.963417441     -31.0725143      0.268017879     -121.003203
2.63                 0.268894381     -121.253673       0.96317352     -31.1854321      0.963173573     -31.1854305      0.268893973     -121.116405
2.64                 0.269768999      -121.36621      0.962929168     -31.2982919      0.962929256     -31.2982896      0.269768578     -121.229548
2.65                 0.270642126     -121.478691      0.962684373     -31.4110943      0.962684496     -31.4110915      0.270641692     -121.342632
2.66                  0.27151376     -121.591119      0.962439139     -31.5238394      0.962439296     -31.5238359      0.271513314     -121.455658
2.67                 0.272383898     -121.703491       0.96219347      -31.636527      0.962193661     -31.6365229      0.272383439     -121.568625
2.68                 0.273252537     -121.815809      0.961947372      -31.749157      0.961947595     -31.7491524      0.273252067     -121.681532
2.69                 0.274119676     -121.928071      0.961700847     -31.8617294      0.961701104     -31.8617242      0.274119195     -121.794381
2.7                  0.274985312     -122.040279      0.961453902     -31.9742441      0.961454191     -31.9742384      0.274984819     -121.907171
2.71                 0.275849442     -122.152431      0.961206541      -32.086701      0.961206861     -32.0866947      0.275848939     -122.019902
2.72                 0.276712064     -122.264527      0.960958767        -32.1991      0.960959118     -32.1990932      0.276711551     -122.132573
2.73                 0.277573177     -122.376569      0.960710586     -32.3114411      0.960710967     -32.3114337      0.277572654     -122.245185
2.74                 0.278432777     -122.488554      0.960462002     -32.4237241      0.960462413     -32.4237162      0.278432244     -122.357738
2.75                 0.279290862     -122.600485      0.960213019      -32.535949      0.960213459     -32.5359406      0.279290321     -122.470231
2.76                 0.280147431     -122.712359      0.959963642     -32.6481156      0.959964111     -32.6481068      0.280146881     -122.582665
2.77                 0.281002481     -122.824177      0.959713875      -32.760224      0.959714372     -32.7602147      0.281001922      -122.69504
2.78                 0.281856009     -122.935939      0.959463723     -32.8722741      0.959464247     -32.8722643      0.281855442     -122.807354
2.79                 0.282708014     -123.047645       0.95921319     -32.9842657      0.959213742     -32.9842554       0.28270744     -122.919609
2.8                  0.283558494     -123.159295       0.95896228     -33.0961988      0.958962859     -33.0961881      0.283557912     -123.031804
2.81                 0.284407447     -123.270889      0.958710999     -33.2080733      0.958711604     -33.2080622      0.284406857      -123.14394
2.82                  0.28525487     -123.382426       0.95845935     -33.3198892      0.958459981     -33.3198777      0.285254273     -123.256015
2.83                 0.286100761     -123.493907      0.958207339     -33.4316464      0.958207995     -33.4316344      0.286100158      -123.36803
2.84                 0.286945119     -123.605331      0.957954968     -33.5433448      0.957955649     -33.5433324      0.286944509     -123.479986
2.85                 0.287787941     -123.716698      0.957702244     -33.6549844      0.957702949     -33.6549716      0.287787325     -123.591881
2.86                 0.288629226     -123.828009       0.95744917      -33.766565      0.957449898     -33.7665518      0.288628604     -123.703716
2.87                 0.289468971     -123.939262       0.95719575     -33.8780866      0.957196502     -33.8780731      0.289468343     -123.815491
2.88                 0.290307175     -124.050459       0.95694199     -33.9895492      0.956942765     -33.9895354      0.290306542     -123.927206
2.89                 0.291143835     -124.161598      0.956687893     -34.1009527       0.95668869     -34.1009385      0.291143197      -124.03886
2.9                   0.29197895     -124.272681      0.956433464     -34.2122971      0.956434283     -34.2122825      0.291978307     -124.150455
2.91                 0.292812518     -124.383706      0.956178708     -34.3235822      0.956179548     -34.3235673      0.292811871     -124.261988
2.92                 0.293644537     -124.494673      0.955923628      -34.434808      0.955924489     -34.4347927      0.293643886     -124.373461
2.93                 0.294475006     -124.605584       0.95566823     -34.5459744      0.955669111     -34.5459589       0.29447435     -124.484874
2.94                 0.295303922     -124.716437      0.955412517     -34.6570815      0.955413418     -34.6570656      0.295303262     -124.596226
2.95                 0.296131284     -124.827232      0.955156494      -34.768129      0.955157415     -34.7681129       0.29613062     -124.707517
2.96                  0.29695709     -124.937969      0.954900165     -34.8791171      0.954901105     -34.8791006      0.296956423     -124.818748
2.97                 0.297781339     -125.048649      0.954643535     -34.9900456      0.954644494     -34.9900288      0.297780668     -124.929918
2.98                 0.298604028     -125.159271      0.954386608     -35.1009144      0.954387585     -35.1008974      0.298603354     -125.041028
2.99                 0.299425156     -125.269835      0.954129389     -35.2117236      0.954130383     -35.2117063      0.299424479     -125.152076
3                    0.300244721     -125.380341      0.953871882      -35.322473      0.953872893     -35.3224555      0.300244042     -125.263064
3.01                 0.301062723     -125.490789       0.95361409     -35.4331627      0.953615119     -35.4331449      0.301062041      -125.37399
3.02                 0.301879158     -125.601179       0.95335602     -35.5437925      0.953357064     -35.5437745      0.301878474     -125.484856
3.03                 0.302694026     -125.711511      0.953097674     -35.6543624      0.953098734     -35.6543442       0.30269334     -125.595661
3.04                 0.303507325     -125.821784      0.952839057     -35.7648725      0.952840133      -35.764854      0.303506637     -125.706405
3.05                 0.304319054        -125.932      0.952580174     -35.8753225      0.952581266     -35.8753038      0.304318364     -125.817087
3.06                 0.305129211     -126.042156      0.952321029     -35.9857125      0.952322135     -35.9856936       0.30512852     -125.927709
3.07                 0.305937794     -126.152255      0.952061626     -36.0960425      0.952062747     -36.0960234      0.305937102     -126.038269
3.08                 0.306744802     -126.262295       0.95180197     -36.2063123      0.951803104     -36.2062931      0.306744109     -126.148768
3.09                 0.307550234     -126.372276      0.951542064      -36.316522      0.951543212     -36.3165026       0.30754954     -126.259206
3.1                  0.308354089     -126.482199      0.951281914     -36.4266715      0.951283075     -36.4266519      0.308353393     -126.369583
3.11                 0.309156364     -126.592063      0.951021524     -36.5367608      0.951022697      -36.536741      0.309155668     -126.479899
3.12                 0.309957059     -126.701868      0.950760897     -36.6467898      0.950762083     -36.6467699      0.309956362     -126.590153
3.13                 0.310756172     -126.811614      0.950500038     -36.7567586      0.950501236     -36.7567385      0.310755475     -126.700346
3.14                 0.311553702     -126.921302      0.950238951     -36.8666669      0.950240161     -36.8666467      0.311553005     -126.810477
3.15                 0.312349647      -127.03093      0.949977641     -36.9765149      0.949978862     -36.9764946       0.31234895     -126.920547
3.16                 0.313144007       -127.1405      0.949716112     -37.0863025      0.949717344      -37.086282       0.31314331     -127.030556
3.17                  0.31393678     -127.250011      0.949454369     -37.1960297       0.94945561      -37.196009      0.313936083     -127.140503
3.18                 0.314727964     -127.359462      0.949192414     -37.3056963      0.949193666     -37.3056756      0.314727268     -127.250389
3.19                 0.315517559     -127.468855      0.948930254     -37.4153025      0.948931515     -37.4152816      0.315516863     -127.360213
3.2                  0.316305564     -127.578188      0.948667891     -37.5248481      0.948669161     -37.5248272      0.316304869     -127.469975
3.21                 0.317091977     -127.687462       0.94840533     -37.6343332       0.94840661     -37.6343121      0.317091282     -127.579676
3.22                 0.317876796     -127.796677      0.948142576     -37.7437576      0.948143864     -37.7437365      0.317876103     -127.689316
3.23                 0.318660022     -127.905833      0.947879632     -37.8531214      0.947880928     -37.8531002       0.31865933     -127.798894
3.24                 0.319441653     -128.014929      0.947616503     -37.9624246      0.947617807     -37.9624033      0.319440961      -127.90841
3.25                 0.320221687     -128.123966      0.947353194     -38.0716671      0.947354505     -38.0716458      0.320220997     -128.017865
3.26                 0.321000124     -128.232943      0.947089707     -38.1808489      0.947091026     -38.1808275      0.320999436     -128.127257
3.27                 0.321776963     -128.341861      0.946826048       -38.28997      0.946827373     -38.2899485      0.321776276     -128.236589
3.28                 0.322552202      -128.45072       0.94656222     -38.3990303      0.946563552     -38.3990088      0.322551517     -128.345858
3.29                 0.323325841     -128.559518      0.946298229     -38.5080299      0.946299566     -38.5080083      0.323325157     -128.455066
3.3                  0.324097879     -128.668258      0.946034077     -38.6169687       0.94603542      -38.616947      0.324097197     -128.564212
3.31                 0.324868314     -128.776938      0.945769769     -38.7258466      0.945771118      -38.725825      0.324867634     -128.673296
3.32                 0.325637146     -128.885558       0.94550531     -38.8346638      0.945506664     -38.8346421      0.325636468     -128.782319
3.33                 0.326404374     -128.994118      0.945240702     -38.9434201      0.945242061     -38.9433984      0.326403698      -128.89128
3.34                 0.327169996     -129.102619      0.944975952     -39.0521155      0.944977315     -39.0520938      0.327169323     -129.000178
3.35                 0.327934013      -129.21106      0.944711062       -39.16075      0.944712429     -39.1607283      0.327933342     -129.109016
3.36                 0.328696423     -129.319442      0.944446037     -39.2693237      0.944447408      -39.269302      0.328695755     -129.217791
3.37                 0.329457225     -129.427763      0.944180881     -39.3778365      0.944182256     -39.3778148       0.32945656     -129.326505
3.38                 0.330216419     -129.536025      0.943915598     -39.4862883      0.943916976     -39.4862666      0.330215756     -129.435156
3.39                 0.330974004     -129.644227      0.943650192     -39.5946792      0.943651572     -39.5946575      0.330973343     -129.543746
3.4                  0.331729978     -129.752369      0.943384667     -39.7030092       0.94338605     -39.7029875       0.33172932     -129.652274
3.41                 0.332484342     -129.860451      0.943119027     -39.8112783      0.943120413     -39.8112566      0.332483687     -129.760741
3.42                 0.333237093     -129.968473      0.942853277     -39.9194863      0.942854665     -39.9194647      0.333236442     -129.869145
3.43                 0.333988233     -130.076436       0.94258742     -40.0276334      0.942588809     -40.0276118      0.333987585     -129.977488
3.44                  0.33473776     -130.184338      0.942321461     -40.1357196      0.942322851      -40.135698      0.334737114     -130.085768
3.45                 0.335485673     -130.292181      0.942055403     -40.2437447      0.942056795     -40.2437232      0.335485031     -130.193987
3.46                 0.336231971     -130.399963      0.941789251     -40.3517089      0.941790643     -40.3516874      0.336231333     -130.302144
3.47                 0.336976655     -130.507686      0.941523008     -40.4596121      0.941524401     -40.4595907       0.33697602     -130.410239
3.48                 0.337719723     -130.615348      0.941256679     -40.5674543      0.941258072     -40.5674329      0.337719091     -130.518273
3.49                 0.338461174     -130.722951      0.940990268     -40.6752355      0.940991661     -40.6752142      0.338460546     -130.626244
3.5                  0.339201009     -130.830493      0.940723778     -40.7829557       0.94072517     -40.7829345      0.339200384     -130.734154
3.51                 0.339939226     -130.937976      0.940457214     -40.8906149      0.940458606     -40.8905937      0.339938606     -130.842002
3.52                 0.340675826     -131.045398      0.940190579     -40.9982132       0.94019197      -40.998192      0.340675209     -130.949788
3.53                 0.341410807     -131.152761      0.939923878     -41.1057504      0.939925268     -41.1057294      0.341410193     -131.057512
3.54                 0.342144168     -131.260063      0.939657114     -41.2132266      0.939658503     -41.2132057      0.342143559     -131.165174
3.55                 0.342875911     -131.367305      0.939390292     -41.3206419      0.939391679      -41.320621      0.342875305     -131.272775
3.56                 0.343606033     -131.474488      0.939123415     -41.4279962      0.939124801     -41.4279754      0.343605431     -131.380313
3.57                 0.344334535      -131.58161      0.938856488     -41.5352895      0.938857871     -41.5352688      0.344333937      -131.48779
3.58                 0.345061415     -131.688672      0.938589514     -41.6425218      0.938590895     -41.6425012      0.345060822     -131.595205
3.59                 0.345786675     -131.795674      0.938322497     -41.7496932      0.938323875     -41.7496727      0.345786086     -131.702559
3.6                  0.346510312     -131.902616      0.938055442     -41.8568036      0.938056817     -41.8567832      0.346509727      -131.80985
3.61                 0.347232328     -132.009497      0.937788351     -41.9638531      0.937789723     -41.9638328      0.347231747      -131.91708
3.62                 0.347952721     -132.116319       0.93752123     -42.0708416      0.937522598     -42.0708214      0.347952144     -132.024249
3.63                  0.34867149     -132.223081      0.937254081     -42.1777692      0.937255445     -42.1777492      0.348670918     -132.131355
3.64                 0.349388637     -132.329782      0.936986908     -42.2846359      0.936988269      -42.284616       0.34938807       -132.2384
3.65                  0.35010416     -132.436424      0.936719717     -42.3914417      0.936721073     -42.3914219      0.350103597     -132.345383
3.66                 0.350818059     -132.543005       0.93645251     -42.4981866      0.936453862     -42.4981669      0.350817501     -132.452304
3.67                 0.351530334     -132.649526      0.936185291     -42.6048706      0.936186638     -42.6048511       0.35152978     -132.559164
3.68                 0.352240985     -132.755987      0.935918064     -42.7114938      0.935919406     -42.7114744      0.352240435     -132.665962
3.69                  0.35295001     -132.862389      0.935650832     -42.8180561       0.93565217     -42.8180368      0.352949465     -132.772699
3.7                  0.353657411      -132.96873      0.935383601     -42.9245576      0.935384934     -42.9245385      0.353656871     -132.879374
3.71                 0.354363186     -133.075011      0.935116373     -43.0309983        0.9351177     -43.0309793      0.354362651     -132.985987
3.72                 0.355067336     -133.181232      0.934849153     -43.1373782      0.934850474     -43.1373593      0.355066806     -133.092539
3.73                 0.355769861     -133.287393      0.934581943     -43.2436973      0.934583258     -43.2436786      0.355769335      -133.19903
3.74                 0.356470759     -133.393494      0.934314748     -43.3499557      0.934316058     -43.3499371      0.356470238     -133.305459
3.75                 0.357170032     -133.499535      0.934047572     -43.4561533      0.934048875     -43.4561349      0.357169516     -133.411826
3.76                 0.357867678     -133.605516      0.933780419     -43.5622903      0.933781715      -43.562272      0.357867167     -133.518132
3.77                 0.358563699     -133.711437      0.933513291     -43.6683665      0.933514581     -43.6683484      0.358563192     -133.624377
3.78                 0.359258092     -133.817298      0.933246193     -43.7743821      0.933247476     -43.7743642      0.359257591      -133.73056
3.79                  0.35995086     -133.923099      0.932979129     -43.8803371      0.932980405     -43.8803193      0.359950364     -133.836682
3.8                  0.360642001     -134.028841      0.932712102     -43.9862314      0.932713371     -43.9862138      0.360641509     -133.942742
3.81                 0.361331515     -134.134522      0.932445117     -44.0920652      0.932446377     -44.0920477      0.361331029     -134.048741
3.82                 0.362019402     -134.240144      0.932178175     -44.1978384      0.932179429     -44.1978211      0.362018921     -134.154679
3.83                 0.362705663     -134.345705      0.931911283      -44.303551      0.931912528     -44.3035339      0.362705187     -134.260556
3.84                 0.363390297     -134.451207      0.931644442     -44.4092032      0.931645679     -44.4091863      0.363389826     -134.366372
3.85                 0.364073305     -134.556649      0.931377657     -44.5147949      0.931378886     -44.5147781      0.364072839     -134.472126
3.86                 0.364754685     -134.662031      0.931110931     -44.6203261      0.931112151     -44.6203095      0.364754224     -134.577819
3.87                 0.365434439     -134.767354      0.930844268      -44.725797       0.93084548     -44.7257806      0.365433983     -134.683451
3.88                 0.366112566     -134.872617      0.930577672     -44.8312074      0.930578875     -44.8311912      0.366112116     -134.789022
3.89                 0.366789066      -134.97782      0.930311146     -44.9365575       0.93031234     -44.9365415      0.366788622     -134.894532
3.9                   0.36746394     -135.082963      0.930044694     -45.0418473      0.930045879     -45.0418315      0.367463501     -134.999981
3.91                 0.368137188     -135.188047      0.929778319     -45.1470768      0.929779495     -45.1470612      0.368136753      -135.10537
3.92                 0.368808809     -135.293071      0.929512025     -45.2522461      0.929513192     -45.2522306       0.36880838     -135.210697
3.93                 0.369478803     -135.398035      0.929245816     -45.3573552      0.929246973     -45.3573399       0.36947838     -135.315963
3.94                 0.370147172      -135.50294      0.928979695      -45.462404      0.928980842      -45.462389      0.370146753     -135.421169
3.95                 0.370813914     -135.607786      0.928713666     -45.5673928      0.928714803     -45.5673779      0.370813501     -135.526313
3.96                 0.371479031     -135.712571      0.928447732     -45.6723214      0.928448859     -45.6723068      0.371478623     -135.631397
3.97                 0.372142521     -135.817298      0.928181897       -45.77719      0.928183014     -45.7771756      0.372142119     -135.736421
3.98                 0.372804387     -135.921965      0.927916164     -45.8819986      0.927917271     -45.8819844       0.37280399     -135.841383
3.99                 0.373464626     -136.026572      0.927650537     -45.9867472      0.927651633     -45.9867332      0.373464235     -135.946285
4                    0.374123241      -136.13112      0.927385019     -46.0914359      0.927386105     -46.0914221      0.374122855     -136.051126
4.01                 0.374780231     -136.235609      0.927119614     -46.1960647      0.927120689      -46.196051       0.37477985     -136.155907
4.02                 0.375435595     -136.340039      0.926854326     -46.3006336       0.92685539     -46.3006202       0.37543522     -136.260628
4.03                 0.376089336     -136.444409      0.926589157     -46.4051427       0.92659021     -46.4051295      0.376088966     -136.365288
4.04                 0.376741452      -136.54872      0.926324112     -46.5095921      0.926325153     -46.5095791      0.376741088     -136.469887
4.05                 0.377391944     -136.652972      0.926059193     -46.6139817      0.926060223     -46.6139689      0.377391585     -136.574427
4.06                 0.378040813     -136.757165      0.925794404     -46.7183117      0.925795422     -46.7182991      0.378040459     -136.678906
4.07                 0.378688058     -136.861299      0.925529749      -46.822582      0.925530756     -46.8225696       0.37868771     -136.783324
4.08                  0.37933368     -136.965373       0.92526523     -46.9267928      0.925266226     -46.9267806      0.379333337     -136.887683
4.09                 0.379977679     -137.069389      0.925000852      -47.030944      0.925001836     -47.0309321      0.379977342     -136.991981
4.1                  0.380620056     -137.173346      0.924736618     -47.1350358       0.92473759      -47.135024      0.380619724      -137.09622
4.11                  0.38126081     -137.277243      0.924472531     -47.2390681       0.92447349     -47.2390566      0.381260484     -137.200398
4.12                 0.381899943     -137.381082      0.924208595      -47.343041      0.924209542     -47.3430297      0.381899623     -137.304516
4.13                 0.382537455     -137.484862      0.923944812     -47.4469546      0.923945747     -47.4469436       0.38253714     -137.408575
4.14                 0.383173345     -137.588584      0.923681186      -47.550809      0.923682109     -47.5507981      0.383173036     -137.512573
4.15                 0.383807615     -137.692246      0.923417722     -47.6546041      0.923418631     -47.6545934      0.383807311     -137.616512
4.16                 0.384440265      -137.79585       0.92315442       -47.75834      0.923155317     -47.7583296      0.384439966     -137.720391
4.17                 0.385071295     -137.899395      0.922891287     -47.8620168      0.922892171     -47.8620066      0.385071002      -137.82421
4.18                 0.385700705     -138.002882      0.922628323     -47.9656346      0.922629194     -47.9656246      0.385700418      -137.92797
4.19                 0.386328497      -138.10631      0.922365534     -48.0691933      0.922366392     -48.0691836      0.386328215      -138.03167
4.2                   0.38695467      -138.20968      0.922102921     -48.1726931      0.922103766     -48.1726836      0.386954393      -138.13531
4.21                 0.387579225     -138.312991      0.921840489      -48.276134      0.921841321     -48.2761247      0.387578954     -138.238892
4.22                 0.388202163     -138.416244       0.92157824      -48.379516      0.921579059      -48.379507      0.388201897     -138.342413
4.23                 0.388823483     -138.519438      0.921316178     -48.4828393      0.921316984     -48.4828305      0.388823223     -138.445876
4.24                 0.389443187     -138.622574      0.921054307     -48.5861039      0.921055098     -48.5860953      0.389442932     -138.549279
4.25                 0.390061275     -138.725652      0.920792628     -48.6893097      0.920793406     -48.6893014      0.390061026     -138.652623
4.26                 0.390677747     -138.828672      0.920531146      -48.792457      0.920531911     -48.7924489      0.390677503     -138.755907
4.27                 0.391292605     -138.931634      0.920269864     -48.8955458      0.920270615     -48.8955379      0.391292366     -138.859133
4.28                 0.391905847     -139.034538      0.920008785      -48.998576      0.920009522     -48.9985684      0.391905614       -138.9623
4.29                 0.392517476     -139.137383      0.919747912     -49.1015479      0.919748635     -49.1015405      0.392517249     -139.065407
4.3                  0.393127492     -139.240171      0.919487248     -49.2044614      0.919487957     -49.2044542       0.39312727     -139.168456
4.31                 0.393735894     -139.342901      0.919226797     -49.3073166      0.919227491     -49.3073096      0.393735678     -139.271446
4.32                 0.394342685     -139.445573      0.918966561     -49.4101136      0.918967241     -49.4101068      0.394342474     -139.374377
4.33                 0.394947864     -139.548187      0.918706544     -49.5128524       0.91870721     -49.5128459      0.394947658      -139.47725
4.34                 0.395551431     -139.650744      0.918446748     -49.6155331        0.9184474     -49.6155268      0.395551231     -139.580064
4.35                 0.396153389     -139.753243      0.918187178     -49.7181558      0.918187816     -49.7181497      0.396153194     -139.682819
4.36                 0.396753736     -139.855685      0.917927836     -49.8207205      0.917928459     -49.8207147      0.396753547     -139.785516
4.37                 0.397352475     -139.958069      0.917668725     -49.9232274      0.917669333     -49.9232218       0.39735229     -139.888154
4.38                 0.397949604     -140.060395      0.917409848     -50.0256764      0.917410442      -50.025671      0.397949425     -139.990734
4.39                 0.398545126     -140.162665      0.917151208     -50.1280676      0.917151787     -50.1280625      0.398544953     -140.093256
4.4                  0.399139041     -140.264877      0.916892809     -50.2304012      0.916893373     -50.2303963      0.399138873      -140.19572
4.41                 0.399731349     -140.367031      0.916634653     -50.3326771      0.916635203     -50.3326724      0.399731186     -140.298126
4.42                 0.400322051     -140.469129      0.916376744     -50.4348955      0.916377279      -50.434891      0.400321894     -140.400473
4.43                 0.400911148     -140.571169      0.916119084     -50.5370564      0.916119604     -50.5370522      0.400910996     -140.502763
4.44                 0.401498641     -140.673153      0.915861676     -50.6391599      0.915862181     -50.6391559      0.401498494     -140.604994
4.45                 0.402084529     -140.775079      0.915604524     -50.7412061      0.915605014     -50.7412023      0.402084388     -140.707168
4.46                 0.402668815     -140.876949      0.915347631      -50.843195      0.915348106     -50.8431915      0.402668678     -140.809284
4.47                 0.403251498     -140.978762      0.915090999     -50.9451267      0.915091458     -50.9451234      0.403251367     -140.911343
4.48                 0.403832579     -141.080518      0.914834631     -51.0470013      0.914835076     -51.0469983      0.403832454     -141.013344