! TOUCHSTONE file generated by CST MICROWAVE STUDIO
! Date and time: Tue Mar 14 18:10:13 2023
! Project name: Untitled_0.cst
! Header version: 2018
! Port assignment regex: !\s*Touchstone port\s*([0-9]+)\s*=\s*(CST MWS port|CST DS port)\s*([0-9]+|Zmin|Zmax)\s*\(\"(.*)\"\)(\s*mode\s*([0-9]+))?.*
! Touchstone port assignment:
! Touchstone port 1 = CST MWS port 1 ("")
! Touchstone port 2 = CST MWS port 2 ("")
# GHz S MA R 50
0.1                 0.0758053233      85.3178079      0.997121472     -4.68221211      0.997121481     -4.68221437     0.0758053182      85.3178123
0.1159               0.087940101       84.568954      0.996127902     -5.43298849      0.996127929     -5.43287678     0.0879392621       84.569193
0.1318                0.10002724      83.8203092      0.994987823      -6.1817786      0.994987894     -6.18155696      0.100025597      83.8207253
0.1477                 0.1120614      83.0727278      0.993703214     -6.92837095      0.993703349     -6.92804338      0.112058981      83.0732822
0.1636                0.12403737      82.3268066      0.992276232     -7.67255846      0.992276454     -7.67212891      0.124034205      82.3274716
0.1795                0.13595008      81.5829971       0.99070921     -8.41413881      0.990709539     -8.41361119      0.135946197      81.5837524
0.1954               0.147794607      80.8416635      0.989004645     -9.15291472        0.9890051      -9.1522929      0.147790037      80.8424938
0.2113               0.159566191      80.1031133      0.987165189     -9.88869425      0.987165787     -9.88798205      0.159560961      80.1040064
0.2272               0.171260232      79.3676151       0.98519364      -10.621291      0.985194398     -10.6204922      0.171254373      79.3685615
0.2431               0.182872306      78.6354095      0.983092932     -11.3505245      0.983093865     -11.3496428      0.182865846      78.6364014
0.259                0.194398167      77.9067155      0.980866124     -12.0762201      0.980867246     -12.0752592      0.194391136      77.9077465
0.2749               0.205833755       77.181735      0.978516389     -12.7982094      0.978517713      -12.797173      0.205826181      77.1827999
0.2908               0.217175194      76.4606558      0.976047007     -13.5163306      0.976048545     -13.5152222      0.217167106      76.4617499
0.3067               0.228418806      75.7436531       0.97346135     -14.2304281      0.973463112     -14.2292513      0.228410231      75.7447725
0.3226               0.239561104      75.0308912      0.970762873      -14.940353      0.970764869     -14.9391112       0.23955207      75.0320325
0.3385                 0.2505988      74.3225242      0.967955104     -15.6459632      0.967957342     -15.6446599      0.250589336      74.3236845
0.3544               0.261528804      73.6186968      0.965041635     -16.3471232      0.965044123     -16.3457619      0.261518937      73.6198735
0.3703               0.272348226       72.919545      0.962026108     -17.0437045      0.962028852     -17.0422884      0.272337983      72.9207358
0.3862               0.283054375      72.2251962      0.958912208     -17.7355853      0.958915212     -17.7341178      0.283043782       72.226399
0.4021               0.293644759      71.5357696      0.955703651     -18.4226507      0.955706921     -18.4211349      0.293633842      71.5369825
0.418                 0.30411708      70.8513765      0.952404177     -19.1047926      0.952407715     -19.1032319      0.304105866      70.8525979
0.4339               0.314469237      70.1721207      0.949017538     -19.7819097      0.949021347     -19.7803071      0.314457751      70.1733489
0.4498               0.324699323      69.4980984      0.945547492     -20.4539075      0.945551574     -20.4522662       0.32468759       69.499332
0.4657               0.334805617      68.8293985      0.941997792     -21.1206981      0.942002147     -21.1190211      0.334793662      68.8306362
0.4816               0.344786585      68.1661029      0.938372179     -21.7822003      0.938376807     -21.7804906      0.344774431      68.1673435
0.4975               0.354640875      67.5082866      0.934674376     -22.4383392      0.934679275     -22.4365997      0.354628546       67.509529
0.5134                0.36436731      66.8560177      0.930908076     -23.0890464      0.930913245     -23.0872801       0.36435483      66.8572608
0.5293               0.373964889       66.209358       0.92707694     -23.7342598      0.927082377     -23.7324694      0.373952279      66.2106008
0.5452               0.383432774      65.5683627      0.923184589     -24.3739234      0.923190291     -24.3721118      0.383420057      65.5696042
0.5611               0.392770291      64.9330809      0.919234599     -25.0079871      0.919240561      -25.006157      0.392757488      64.9343203
0.577                0.401976923      64.3035557      0.915230493     -25.6364066       0.91523671     -25.6345607      0.401964056       64.304792
0.5929               0.411052303      63.6798242      0.911175737     -26.2591435      0.911182205     -26.2572845      0.411039391      63.6810568
0.6088               0.419996207      63.0619182      0.907073737     -26.8761647      0.907080451     -26.8742951      0.419983271      63.0631463
0.6247               0.428808552      62.4498636      0.902927836     -27.4874424      0.902934788     -27.4855647      0.428795611      62.4510865
0.6406               0.437489386      61.8436816      0.898741305     -28.0929541      0.898748489     -28.0910709      0.437476458      61.8448985
0.6565               0.446038884      61.2433878      0.894517344     -28.6926821      0.894524752     -28.6907958      0.446025987      61.2445982
0.6724                0.45445734      60.6489932      0.890259079     -29.2866136      0.890266704     -29.2847265      0.454444493      60.6501964
0.6883               0.462745164      60.0605042      0.885969559     -29.8747404      0.885977392     -29.8728549      0.462732382      60.0616996
0.7042               0.470902871      59.4779226      0.881651751     -30.4570587      0.881659784      -30.455177      0.470890172      59.4791096
0.7201               0.478931079      58.9012459      0.877308543     -31.0335688      0.877316767     -31.0316932      0.478918479       58.902424
0.736                0.486830504      58.3304677       0.87294274     -31.6042752      0.872951146     -31.6024079      0.486818017      58.3316362
0.7519               0.494601947      57.7655774      0.868557063     -32.1691862      0.868565641     -32.1673293      0.494589589       57.766736
0.7678               0.502246297       57.206561       0.86415415     -32.7283138       0.86416289     -32.7264693      0.502234081      57.2077091
0.7837                0.50976452      56.6534008      0.859736551     -33.2816734      0.859745443     -33.2798434       0.50975246      56.6545379
0.7996               0.517157653       56.106076      0.855306734     -33.8292837      0.855315767     -33.8274701      0.517145763      56.1072017
0.8155               0.524426803      55.5645623      0.850867079     -34.3711666      0.850876244     -34.3693714      0.524415095      55.5656761
0.8314               0.531573138      55.0288328      0.846419884      -34.907347      0.846429169      -34.905572      0.531561623      55.0299343
0.8473               0.538597881      54.4988575      0.841967361     -35.4378525      0.841976754     -35.4360995      0.538586573      54.4999463
0.8632               0.545502311       53.974604      0.837511638     -35.9627133      0.837521129     -35.9609841      0.545491219      53.9756796
0.8791               0.552287752      53.4560373      0.833054759      -36.481962      0.833064337     -36.4802583      0.552276887      53.4570994
0.895                0.558955571      52.9431202       0.82859869     -36.9956338      0.828608343     -36.9939572      0.558944942      52.9441685
0.9109               0.565507173      52.4358133      0.824145312     -37.5037656      0.824155028     -37.5021179      0.565496791      52.4368473
0.9268               0.571943999      51.9340752      0.819696428     -38.0063967      0.819706196     -38.0047793      0.571933872      51.9350946
0.9427               0.578267519      51.4378627      0.815253763      -38.503568      0.815263572     -38.5019825      0.578257656      51.4388671
0.9586               0.584479231      50.9471308      0.810818966     -38.9953222      0.810828803       -38.99377       0.58446964      50.9481199
0.9745               0.590580654       50.461833      0.806393609     -39.4817037      0.806403463     -39.4801862      0.590571342      50.4628065
0.9904               0.596573329      49.9819213      0.801979192      -39.962758      0.801989052     -39.9612766      0.596564303      49.9828789
1.0063               0.602458811      49.5073465      0.797577144     -40.4385323      0.797586997     -40.4370883      0.602450079      49.5082879
1.0222               0.608238671      49.0380581      0.793188821     -40.9090749      0.793198656     -40.9076696      0.608230237       49.038983
1.0381               0.613914487      48.5740046      0.788815514     -41.3744351       0.78882532     -41.3730697      0.613906358      48.5749126
1.054                0.619487847      48.1151334      0.784458447     -41.8346633      0.784468211      -41.833339      0.619480029      48.1160243
1.0699               0.624960345       47.661391      0.780118779     -42.2898107       0.78012849     -42.2885286      0.624952842      47.6622647
1.0858               0.630333575      47.2127235      0.775797607     -42.7399294      0.775807253     -42.7386906      0.630326392      47.2135796
1.1017               0.635609134      46.7690758      0.771495966      -43.185072      0.771505536     -43.1838775      0.635602275      46.7699141
1.1176               0.640788616      46.3303926      0.767214834      -43.625292      0.767224318     -43.6241428      0.640782084      46.3312129
1.1335               0.645873612       45.896618      0.762955132     -44.0606431      0.762964518     -44.0595401      0.645867412      45.8974201
1.1494               0.650865707      45.4676957      0.758717726     -44.4911796      0.758727003     -44.4901238      0.650859841      45.4684792
1.1653               0.655766481      45.0435689      0.754503429     -44.9169562      0.754512586     -44.9159484      0.655760952      45.0443338
1.1812               0.660577503      44.6241808      0.750313003     -45.3380278      0.750322028     -45.3370688      0.660572313      44.6249268
1.1971               0.665300333      44.2094742      0.746147159     -45.7544496      0.746156043     -45.7535402      0.665295485      44.2102011
1.213                 0.66993652      43.7993919      0.742006564     -46.1662769      0.742015296     -46.1654177      0.669932015      43.8000996
1.2289               0.674487601      43.3938764      0.737891837      -46.573565      0.737900407     -46.5727568      0.674483441      43.3945647
1.2448               0.678955097      42.9928706      0.733803553     -46.9763695      0.733811951     -46.9756128      0.678951283      42.9935393
1.2607               0.683340518       42.596317      0.729742246     -47.3747457      0.729750461     -47.3740412       0.68333705       42.596966
1.2766               0.687645355      42.2041585       0.72570841     -47.7687491      0.725716432     -47.7680973      0.687642234      42.2047876
1.2925               0.691871085       41.816338      0.721702497     -48.1584348      0.721710318     -48.1578362      0.691868311      41.8169471
1.3084               0.696019166      41.4327986      0.717724927     -48.5438581      0.717732535     -48.5433131      0.696016741      41.4333876
1.3243               0.700091042      41.0534837      0.713776079     -48.9250738      0.713783467     -48.9245829      0.700088963      41.0540524
1.3402               0.704088134      40.6783368      0.709856301     -49.3021365      0.709863459     -49.3017001      0.704086402      40.6788851
1.3561               0.708011847      40.3073019      0.705965909     -49.6751008      0.705972828     -49.6747192      0.708010461      40.3078297
1.372                0.711863567      39.9403231      0.702105185     -50.0440206      0.702111857     -50.0436942      0.711862526      39.9408304
1.3879               0.715644658      39.5773452      0.698274385     -50.4089499      0.698280801     -50.4086788      0.715643961      39.5778317
1.4038               0.719356467      39.2183129      0.694473733      -50.769942      0.694479885     -50.7697265      0.719356112      39.2187787
1.4197               0.723000318      38.8631718      0.690703429       -51.12705      0.690709308     -51.1268902      0.723000304      38.8636167
1.4356               0.726577518      38.5118676      0.686963645     -51.4803264      0.686969243     -51.4802226      0.726577843      38.5122916
1.4515               0.730089349      38.1643468      0.683254529     -51.8298236       0.68325984     -51.8297758      0.730090012      38.1647497
1.4674               0.733537077      37.8205559      0.679576207     -52.1755933      0.679581222     -52.1756016      0.733538074      37.8209378
1.4833               0.736921943      37.4804423      0.675928781     -52.5176867      0.675933494     -52.5177512      0.736923273      37.4808031
1.4992               0.740245171      37.1439538      0.672312333     -52.8561548      0.672316736     -52.8562755       0.74024683      37.1442934
1.5151                0.74350796      36.8110386      0.668726926     -53.1910478      0.668731012     -53.1912246      0.743509947      36.8113571
1.531                0.746711492      36.4816457        0.6651726     -53.5224155      0.665176364     -53.5226483      0.746713803       36.481943
1.5469               0.749856925      36.1557244      0.661649383     -53.8503073      0.661652817     -53.8505961      0.749859558      36.1560004
1.5628               0.752945399      35.8332247       0.65815728     -54.1747719      0.658160379     -54.1751165       0.75294835      35.8334795
1.5787               0.755978032      35.5140971      0.654696285     -54.4958575      0.654699042     -54.4962578      0.755981297      35.5143306
1.5946                0.75895592      35.1982927      0.651266372     -54.8136119      0.651268782     -54.8140676      0.758959498      35.1985049
1.6105               0.761880143      34.8857632      0.647867506     -55.1280822      0.647869563     -55.1285931      0.761884029      34.8859541
1.6264               0.764751756      34.5764608      0.644499633     -55.4393149      0.644501332     -55.4398808      0.764755946      34.5766305
1.6423               0.767571797      34.2703386      0.641162689     -55.7473561      0.641164025     -55.7479768      0.767576288       34.270487
1.6582               0.770341283      33.9673498      0.637856599     -56.0522513      0.637857567     -56.0529263      0.770346071       33.967477
1.6741               0.773061212      33.6674487      0.634581274     -56.3540453      0.634581869     -56.3547743      0.773066292      33.6675546
1.69                 0.775732561      33.3705897      0.631336616     -56.6527824      0.631336834     -56.6535651       0.77573793      33.3706745
1.7059               0.778356291      33.0767284      0.628122516     -56.9485065      0.628122354     -56.9493424      0.778361944       33.076792
1.7218                0.78093334      32.7858204      0.624938858     -57.2412607       0.62493831     -57.2421494      0.780939274      32.7858629
1.7377               0.783464631      32.4978223      0.621785513     -57.5310876      0.621784577     -57.5320287       0.78347084      32.4978437
1.7536               0.785951066      32.2126911      0.618662348     -57.8180293      0.618661019     -57.8190222      0.785957547      32.2126915
1.7695               0.788393531      31.9303845      0.615569219     -58.1021273      0.615567495     -58.1031715      0.788400279       31.930364
1.7854               0.790792892      31.6508608      0.612505978     -58.3834224      0.612503855     -58.3845175      0.790799903      31.6508195
1.8013               0.793149998      31.3740788      0.609472468      -58.661955      0.609469943     -58.6631004      0.793157267      31.3740167
1.8172               0.795465683       31.099998      0.606468526      -58.937765      0.606465596       -58.93896      0.795473205      31.0999152
1.8331                0.79774076      30.8285784      0.603493985     -59.2108916      0.603490648     -59.2121357      0.797748531       30.828475
1.849                0.799976029      30.5597807       0.60054867     -59.4813734      0.600544923     -59.4826659      0.799984044      30.5596566
1.8649               0.802172271       30.293566      0.597632403     -59.7492487      0.597628245      -59.750589      0.802180524      30.2934214
1.8808                0.80433025       30.029896      0.594745001      -60.014555       0.59474043     -60.0159423      0.804338738      30.0297311
1.8967               0.806450719      29.7687332      0.591886277     -60.2773293      0.591881291     -60.2787631      0.806459436       29.768548
1.9126               0.808534409      29.5100404      0.589056041     -60.5376082      0.589050638     -60.5390877       0.80854335      29.5098351
1.9285                0.81058204       29.253781      0.586254098     -60.7954278      0.586248276     -60.7969522      0.810591201      29.2535557
1.9444               0.812594315      28.9999192      0.583480249     -61.0508234      0.583474009      -61.052392      0.812603691      28.9996739
1.9603               0.814571924      28.7484193      0.580734296       -61.30383      0.580727635      -61.305442       0.81458151      28.7481543
1.9762               0.816515541      28.4992466      0.578016035     -61.5544821      0.578008953     -61.5561367      0.816525331      28.4989619
1.9921               0.818425826      28.2523667      0.575325261     -61.8028136      0.575317758     -61.8045101      0.818435815      28.2520624
2.008                0.820303425      28.0077456      0.572661767      -62.048858      0.572653841     -62.0505954      0.820313608      28.0074219
2.0239               0.822148971      27.7653501      0.570025343     -62.2926482      0.570016996     -62.2944257      0.822159343      27.7650071
2.0398               0.823963082      27.5251474       0.56741578     -62.5342166       0.56740701     -62.5360335      0.823973639      27.5247853
2.0557               0.825746366      27.2871052      0.564832866     -62.7735952      0.564823673     -62.7754505      0.825757102      27.2867241
2.0716               0.827499415      27.0511916      0.562276386     -63.0108156      0.562266772     -63.0127084      0.827510325      27.0507916
2.0875                0.82922281      26.8173753      0.559746129     -63.2459087      0.559736093     -63.2478381      0.829233889      26.8169567
2.1034               0.830917119      26.5856256      0.557241878     -63.4789051      0.557231422     -63.4808702      0.830928362      26.5851885
2.1193               0.832582899      26.3559121       0.55476342     -63.7098349      0.554752543     -63.7118348      0.832594301      26.3554566
2.1352               0.834220693      26.1282049      0.552310538     -63.9387278      0.552299242     -63.9407615      0.834232249      26.1277312
2.1511               0.835831035      25.9024746      0.549883016      -64.165613      0.549871302     -64.1676796       0.83584274      25.9019829
2.167                0.837414447      25.6786923      0.547480639     -64.3905193      0.547468507     -64.3926178      0.837426295      25.6781828
2.1829               0.838971438      25.4568295       0.54510319     -64.6134749      0.545090643     -64.6156043      0.838983425      25.4563023
2.1988               0.840502508      25.2368582      0.542750455     -64.8345079      0.542737494     -64.8366673      0.840514629      25.2363135
2.2147               0.842008147      25.0187507      0.540422217     -65.0536457      0.540408844      -65.055834      0.842020397      25.0181887
2.2306               0.843488832      24.8024799      0.538118262     -65.2709154      0.538104479     -65.2731317      0.843501206      24.8019009
2.2465               0.844945033      24.5880191      0.535838375     -65.4863437      0.535824183     -65.4885869      0.844957525      24.5874231
2.2624               0.846377207      24.3753419      0.533582343     -65.6999568      0.533567745      -65.702226      0.846389813      24.3747292
2.2783               0.847785803      24.1644225      0.531349952     -65.9117808       0.53133495     -65.9140748      0.847798519      24.1637932
2.2942               0.849171261      23.9552352      0.529140991      -66.121841      0.529125586     -66.1241588       0.84918408      23.9545897
2.3101                0.85053401      23.7477551      0.526955247     -66.3301626      0.526939443     -66.3325032      0.850546929      23.7470934
2.326                0.851874471      23.5419574       0.52479251     -66.5367703       0.52477631     -66.5391327      0.851887484      23.5412798
2.3419               0.853193056      23.3378178      0.522652572     -66.7416885      0.522635977     -66.7440716      0.853206159      23.3371245
2.3578               0.854490168      23.1353123      0.520535223     -66.9449412      0.520518237     -66.9473439      0.854503356      23.1346035
2.3737               0.855766201      22.9344174      0.518440257     -67.1465521      0.518422883     -67.1489734       0.85577947      22.9336934
2.3896               0.857021543      22.7351099      0.516367468     -67.3465445      0.516349709     -67.3489833      0.857034888      22.7343708
2.4055                0.85825657      22.5373669      0.514316651     -67.5449414      0.514298511     -67.5473966      0.858269986       22.536613
2.4214               0.859471654       22.341166      0.512287603     -67.7417653      0.512269085     -67.7442358      0.859485137      22.3403975
2.4373               0.860667156       22.146485      0.510280123     -67.9370385      0.510261229     -67.9395233      0.860680701      22.1457021
2.4532               0.861843432      21.9533021       0.50829401      -68.130783      0.508274745     -68.1332811      0.861857034       21.952505
2.4691               0.863000828      21.7615959      0.506329065     -68.3230205      0.506309432     -68.3255307      0.863014483      21.7607849
2.485                0.864139685      21.5713453      0.504385091     -68.5137722      0.504365095     -68.5162934      0.864153388      21.5705205
2.5009               0.865260335      21.3825294      0.502461892     -68.7030592      0.502441536     -68.7055903      0.865274082      21.3816912
2.5168               0.866363104      21.1951278      0.500559274     -68.8909021      0.500538561     -68.8934421      0.866376892      21.1942763
2.5327               0.867448311      21.0091202      0.498677044     -69.0773213       0.49865598     -69.0798691      0.867462135      21.0082558
2.5486                0.86851627       20.824487      0.496815011     -69.2623369      0.496793599     -69.2648914      0.868530124      20.8236098
2.5645               0.869567284      20.6412084      0.494972987     -69.4459688      0.494951231     -69.4485289      0.869581167      20.6403188
2.5804               0.870601655      20.4592654      0.493150782     -69.6282364      0.493128687     -69.6308011      0.870615561      20.4583634
2.5963               0.871619676      20.2786388      0.491348212      -69.809159      0.491325782     -69.8117271        0.8716336      20.2777248
2.6122               0.872621633        20.09931      0.489565092     -69.9887555      0.489542332      -69.991326      0.872635572      20.0983843
2.6281               0.873607808      19.9212607       0.48780124     -70.1670446      0.487778154     -70.1696164      0.873621758      19.9203234
2.644                0.874578476      19.7444727      0.486056474     -70.3440447      0.486033067     -70.3466168      0.874592433      19.7435242
2.6599               0.875533907      19.5689282      0.484330617      -70.519774      0.484306893     -70.5223453      0.875547868      19.5679687
2.6758               0.876474365      19.3946096      0.482623489     -70.6942503      0.482599454     -70.6968197      0.876488325      19.3936393
2.6917               0.877400109      19.2214997      0.480934917     -70.8674913      0.480910575     -70.8700578      0.877414065      19.2205189
2.7076               0.878311392      19.0495813      0.479264726     -71.0395144      0.479240082     -71.0420769       0.87832534      19.0485902
2.7235               0.879208462      18.8788377      0.477612744     -71.2103367      0.477587803     -71.2128942      0.879222398      18.8778366
2.7394               0.880091563      18.7092523      0.475978802     -71.3799751      0.475953569     -71.3825265      0.880105483      18.7082415
2.7553               0.880960931      18.5408089       0.47436273     -71.5484462      0.474337211     -71.5509905      0.880974833      18.5397886
2.7712               0.881816802      18.3734913      0.472764363     -71.7157665      0.472738562     -71.7183026      0.881830681      18.3724618
2.7871               0.882659402      18.2072838      0.471183534     -71.8819521      0.471157457     -71.8844791      0.882673255      18.2062453
2.803                0.883488956      18.0421708      0.469620083     -72.0470191      0.469593735     -72.0495359       0.88350278      18.0411236
2.8189               0.884305682      17.8781368      0.468073846     -72.2109831      0.468047232     -72.2134887      0.884319474      17.8770812
2.8348               0.885109796      17.7151669      0.466544664     -72.3738597      0.466517791     -72.3763532      0.885123552       17.714103
2.8507               0.885901508      17.5532459      0.465032381     -72.5356642      0.465005253     -72.5381445      0.885915225      17.5521742
2.8666               0.886681024      17.3923593       0.46353684     -72.6964117      0.463509462     -72.6988778      0.886694699      17.3912799
2.8825               0.887448545      17.2324926      0.462057886     -72.8561171      0.462030265      -72.858568      0.887462175      17.2314058
2.8984                0.88820427      17.0736314      0.460595368      -73.014795      0.460567508     -73.0172298      0.888217852      17.0725374
2.9143               0.888948393      16.9157616      0.459149134     -73.1724599      0.459121042     -73.1748776      0.888961923      16.9146609
2.9302               0.889681102      16.7588695      0.457719036     -73.3291261      0.457690718     -73.3315259      0.889694578      16.7577622
2.9461               0.890402585      16.6029413      0.456304927     -73.4848078      0.456276387     -73.4871886      0.890416004      16.6018277
2.962                0.891113023      16.4479636      0.454906661     -73.6395187      0.454877906     -73.6418796      0.891126382      16.4468438
2.9779               0.891812596      16.2939229      0.453524094     -73.7932726      0.453495129     -73.7956128      0.891825892      16.2927974
2.9938               0.892501477      16.1408063      0.452157085     -73.9460831      0.452127916     -73.9484015      0.892514708      16.1396753
3.0097               0.893179839      15.9886008      0.450805492     -74.0979635      0.450776125     -74.1002593      0.893193002      15.9874645
3.0256                0.89384785      15.8372936      0.449469178     -74.2489269      0.449439619     -74.2511992      0.893860942      15.8361524
3.0415               0.894505674      15.6868722      0.448148006     -74.3989863       0.44811826     -74.4012342      0.894518693      15.6857263
3.0574               0.895153473      15.5373242      0.446841839     -74.5481545      0.446811913     -74.5503772      0.895166417      15.5361738
3.0733               0.895791405      15.3886373      0.445550545     -74.6964442      0.445520445     -74.6986409      0.895804271      15.3874828
3.0892               0.896419624      15.2407995      0.444273992     -74.8438679      0.444243722     -74.8460376       0.89643241      15.2396411
3.1051               0.897038284      15.0937989      0.443012048     -74.9904379      0.442981616     -74.9925798      0.897050987      15.0926368
3.121                0.897647532      14.9476238      0.441764586     -75.1361663      0.441733998     -75.1382797       0.89766015      14.9464583
3.1369               0.898247515      14.8022625      0.440531479     -75.2810651      0.440500739     -75.2831491      0.898260046      14.8010939
3.1528               0.898838375      14.6577037        0.4393126     -75.4251461      0.439281715        -75.4272      0.898850817      14.6565323
3.1687               0.899420254      14.5139361      0.438107825     -75.5684211      0.438076802      -75.570444      0.899432605      14.5127621
3.1846               0.899993287      14.3709485      0.436917034     -75.7109015      0.436885878     -75.7128928      0.900005545      14.3697722
3.2005               0.900557611      14.2287301      0.435740103     -75.8525988      0.435708821     -75.8545576      0.900569773      14.2275518
3.2164               0.901113356      14.0872699      0.434576916     -75.9935242      0.434545512     -75.9954498      0.901125421      14.0860898
3.2323               0.901660653      13.9465573      0.433427353     -76.1336887      0.433395834     -76.1355804      0.901672619      13.9453757
3.2482               0.902199627      13.8065818      0.432291298     -76.2731034      0.432259671     -76.2749605      0.902211493       13.805399