! TOUCHSTONE file generated by CST MICROWAVE STUDIO
! Date and time: Mon Mar 13 18:05:33 2023
! Project name: Untitled_0.cst
! Header version: 2018
! Port assignment regex: !\s*Touchstone port\s*([0-9]+)\s*=\s*(CST MWS port|CST DS port)\s*([0-9]+|Zmin|Zmax)\s*\(\"(.*)\"\)(\s*mode\s*([0-9]+))?.*
! Touchstone port assignment:
! Touchstone port 1 = CST MWS port 1 ("")
! Touchstone port 2 = CST MWS port 2 ("")
# GHz S MA R 50
0.1                   0.06136707        82.51343        0.9981152       -7.474129        0.9981151       -7.474129       0.06136707        82.53824
0.1159                0.07102485        81.32946        0.9974716       -8.658818        0.9974715        -8.65882       0.07102485        81.35062
0.1318                0.08063906        80.14697        0.9967374       -9.841888        0.9967374       -9.841888       0.08063906        80.16533
0.1477                0.09020404        78.96605         0.995914       -11.02313         0.995914       -11.02313       0.09020404        78.98219
0.1636                 0.0997142        77.78699         0.995003       -12.20234        0.9950029       -12.20234        0.0997142        77.80132
0.1795                 0.1091641        76.61015        0.9940068       -13.37931        0.9940067       -13.37931        0.1091641        76.62299
0.1954                 0.1185485        75.43567        0.9929272       -14.55385        0.9929272       -14.55385        0.1185485        75.44725
0.2113                 0.1278622        74.26377        0.9917665       -15.72577        0.9917664       -15.72577        0.1278622        74.27425
0.2272                 0.1371002        73.09466        0.9905273       -16.89487        0.9905273       -16.89487        0.1371002        73.10421
0.2431                 0.1462576         71.9285         0.989212       -18.06099        0.9892119       -18.06099        0.1462576        71.93723
0.259                  0.1553298        70.76551        0.9878234       -19.22396        0.9878234       -19.22396        0.1553298        70.77351
0.2749                 0.1643123        69.60584        0.9863644        -20.3836        0.9863644        -20.3836        0.1643123         69.6132
0.2908                 0.1732007        68.44965        0.9848377       -21.53976        0.9848377       -21.53975        0.1732007        68.45643
0.3067                 0.1819909         67.2971        0.9832465       -22.69229        0.9832465       -22.69229        0.1819909        67.30337
0.3226                  0.190679         66.1483        0.9815937       -23.84104        0.9815937       -23.84104         0.190679         66.1541
0.3385                 0.1992612        65.00342        0.9798827        -24.9859        0.9798827        -24.9859        0.1992612         65.0088
0.3544                  0.207734         63.8626        0.9781169       -26.12672        0.9781168       -26.12672         0.207734         63.8676
0.3703                  0.216094        62.72594        0.9762993       -27.26339        0.9762993       -27.26339         0.216094        62.73059
0.3862                 0.2243381        61.59355        0.9744334        -28.3958        0.9744334        -28.3958        0.2243381        61.59788
0.4021                 0.2324632        60.46551        0.9725224       -29.52386        0.9725224       -29.52386        0.2324632        60.46955
0.418                  0.2404666        59.34194        0.9705699       -30.64746        0.9705699       -30.64746        0.2404666        59.34571
0.4339                 0.2483457        58.22292        0.9685795       -31.76653        0.9685795       -31.76653        0.2483457        58.22645
0.4498                 0.2560982        57.10853        0.9665544       -32.88098        0.9665544       -32.88098        0.2560982        57.11183
0.4657                 0.2637217         55.9988        0.9644978       -33.99076        0.9644978       -33.99076        0.2637217        56.00189
0.4816                 0.2712145        54.89383        0.9624137       -35.09581        0.9624137       -35.09581        0.2712145        54.89673
0.4975                 0.2785744        53.79365        0.9603052       -36.19606        0.9603052       -36.19606        0.2785744        53.79638
0.5134                 0.2858001        52.69832        0.9581758       -37.29149        0.9581758       -37.29149        0.2858001        52.70088
0.5293                 0.2928897        51.60784        0.9560286       -38.38206        0.9560286       -38.38206        0.2928897        51.61024
0.5452                 0.2998423        50.52226        0.9538672       -39.46774        0.9538673       -39.46775        0.2998423        50.52452
0.5611                 0.3066563        49.44159        0.9516947       -40.54851        0.9516947       -40.54851        0.3066563        49.44372
0.577                  0.3133311        48.36584        0.9495146       -41.62437        0.9495146       -41.62437        0.3133311        48.36785
0.5929                 0.3198655        47.29504          0.94733        -42.6953          0.94733        -42.6953        0.3198655        47.29693
0.6088                  0.326259        46.22913        0.9451438       -43.76132        0.9451437       -43.76132         0.326259        46.23092
0.6247                 0.3325108        45.16814        0.9429592       -44.82244        0.9429591       -44.82244        0.3325108        45.16983
0.6406                 0.3386207        44.11206        0.9407794       -45.87867        0.9407794       -45.87867        0.3386207        44.11365
0.6565                  0.344588        43.06083        0.9386071       -46.93003        0.9386071       -46.93004         0.344588        43.06234
0.6724                 0.3504127        42.01443        0.9364451       -47.97656        0.9364451       -47.97657        0.3504127        42.01586
0.6883                 0.3560946        40.97285        0.9342966        -49.0183        0.9342966        -49.0183        0.3560946         40.9742
0.7042                 0.3616336        39.93601        0.9321637       -50.05529        0.9321637       -50.05529        0.3616336        39.93729
0.7201                 0.3670298        38.90388        0.9300495       -51.08757        0.9300495       -51.08757        0.3670298        38.90509
0.736                  0.3722834        37.87639        0.9279564       -52.11522        0.9279564       -52.11522        0.3722834        37.87754
0.7519                 0.3773946        36.85349        0.9258868       -53.13827        0.9258867       -53.13827        0.3773946        36.85458
0.7678                 0.3823636        35.83513        0.9238433       -54.15679        0.9238432       -54.15679        0.3823636        35.83617
0.7837                 0.3871908        34.82123        0.9218281       -55.17086        0.9218281       -55.17086        0.3871908        34.82221
0.7996                 0.3918768        33.81171        0.9198435       -56.18056        0.9198435       -56.18056        0.3918768        33.81264
0.8155                 0.3964218        32.80649        0.9178916       -57.18595        0.9178916       -57.18595        0.3964218        32.80737
0.8314                 0.4008264        31.80548        0.9159743       -58.18712        0.9159743       -58.18712        0.4008264        31.80632
0.8473                 0.4050912        30.80863         0.914094       -59.18415         0.914094       -59.18415        0.4050912        30.80943
0.8632                 0.4092169         29.8158        0.9122523       -60.17717        0.9122524       -60.17717        0.4092169        29.81656
0.8791                 0.4132038        28.82695        0.9104512        -61.1662        0.9104512        -61.1662        0.4132038        28.82767
0.895                   0.417053        27.84193        0.9086924       -62.15141        0.9086924       -62.15141         0.417053        27.84261
0.9109                 0.4207647        26.86066        0.9069774       -63.13286        0.9069774       -63.13286        0.4207647        26.86131
0.9268                   0.42434        25.88305        0.9053081       -64.11066        0.9053081       -64.11066          0.42434        25.88367
0.9427                 0.4277793        24.90898         0.903686       -65.08492        0.9036859       -65.08491        0.4277793        24.90957
0.9586                 0.4310836        23.93832        0.9021123       -66.05577        0.9021123       -66.05577        0.4310836        23.93888
0.9745                 0.4342535        22.97099        0.9005887        -67.0233        0.9005887       -67.02329        0.4342535        22.97152
0.9904                 0.4372895        22.00689        0.8991164       -67.98759        0.8991164       -67.98759        0.4372895         22.0074
1.0063                 0.4401926        21.04586        0.8976966       -68.94882        0.8976966       -68.94882        0.4401926        21.04635
1.0222                 0.4429633        20.08781        0.8963306       -69.90708        0.8963306       -69.90707        0.4429633        20.08827
1.0381                 0.4456025        19.13261        0.8950195       -70.86248        0.8950195       -70.86248        0.4456025        19.13304
1.054                  0.4481109        18.18012        0.8937643       -71.81518        0.8937643       -71.81518        0.4481109        18.18053
1.0699                  0.450489        17.23026        0.8925661       -72.76524        0.8925661       -72.76524         0.450489        17.23065
1.0858                 0.4527375        16.28286        0.8914257       -73.71286        0.8914257       -73.71286        0.4527375        16.28324
1.1017                  0.454857        15.33782         0.890344       -74.65811         0.890344       -74.65811         0.454857        15.33818
1.1176                 0.4568481        14.39503         0.889322       -75.60112         0.889322       -75.60112        0.4568481        14.39537
1.1335                 0.4587116        13.45429        0.8883603       -76.54208        0.8883604       -76.54208        0.4587116        13.45461
1.1494                 0.4604478        12.51552        0.8874596       -77.48107        0.8874596       -77.48107        0.4604478        12.51582
1.1653                 0.4620573        11.57861        0.8866207       -78.41821        0.8866206       -78.41821        0.4620573         11.5789
1.1812                 0.4635407        10.64338         0.885844       -79.35367         0.885844       -79.35367        0.4635407        10.64365
1.1971                 0.4648983        9.709694        0.8851303       -80.28758        0.8851303       -80.28759        0.4648983        9.709955
1.213                  0.4661306        8.777496        0.8844799       -81.22002        0.8844799       -81.22002        0.4661306        8.777743
1.2289                 0.4672379        7.846574        0.8838933       -82.15118        0.8838932       -82.15118        0.4672379        7.846808
1.2448                 0.4682209        6.916795         0.883371        -83.0812         0.883371        -83.0812        0.4682209        6.917016
1.2607                 0.4690795        5.988046        0.8829133        -84.0102        0.8829132        -84.0102        0.4690795        5.988254
1.2766                 0.4698141         5.06019        0.8825205        -84.9383        0.8825204        -84.9383        0.4698141        5.060386
1.2925                 0.4704251         4.13309        0.8821928       -85.86566        0.8821928       -85.86566        0.4704251        4.133274
1.3084                 0.4709125        3.206585        0.8819305       -86.79242        0.8819304       -86.79242        0.4709125        3.206757
1.3243                 0.4712766        2.280586        0.8817339       -87.71868        0.8817337       -87.71868        0.4712766        2.280747
1.3402                 0.4715175        1.354906        0.8816029       -88.64463        0.8816029       -88.64463        0.4715175        1.355057
1.3561                 0.4716351       0.4294314        0.8815376       -89.57037        0.8815376       -89.57037        0.4716351       0.4295725
1.372                  0.4716297      -0.4959993        0.8815383       -90.49608        0.8815383       -90.49608        0.4716297      -0.4958682
1.3879                 0.4715013       -1.421477        0.8816049       -91.42184        0.8816049       -91.42184        0.4715013       -1.421355
1.4038                 0.4712496       -2.347186        0.8817371       -92.34783        0.8817371       -92.34783        0.4712496       -2.347074
1.4197                 0.4708746       -3.273267         0.881935        -93.2742         0.881935        -93.2742        0.4708746       -3.273164
1.4356                 0.4703764       -4.199808        0.8821985       -94.20104        0.8821985       -94.20104        0.4703764       -4.199714
1.4515                 0.4697545       -5.126971        0.8825274        -95.1285        0.8825274        -95.1285        0.4697545       -5.126886
1.4674                 0.4690089       -6.054917        0.8829214       -96.05675        0.8829214       -96.05675        0.4690089        -6.05484
1.4833                 0.4681393       -6.983759        0.8833804        -96.9859        0.8833804        -96.9859        0.4681393        -6.98369
1.4992                 0.4671455       -7.913634        0.8839038        -97.9161        0.8839038        -97.9161        0.4671455       -7.913573
1.5151                  0.466027         -8.8447        0.8844916       -98.84749        0.8844915       -98.84749         0.466027       -8.844648
1.531                  0.4647835       -9.777071         0.885143       -99.78019         0.885143       -99.78019        0.4647835       -9.777026
1.5469                 0.4634147       -10.71088        0.8858578       -100.7143        0.8858578       -100.7143        0.4634147       -10.71084
1.5628                 0.4619201       -11.64626        0.8866356       -101.6501        0.8866356       -101.6501        0.4619201       -11.64623
1.5787                 0.4602992       -12.58338        0.8874755       -102.5875        0.8874756       -102.5875        0.4602992       -12.58336
1.5946                 0.4585515       -13.52232        0.8883772       -103.5268        0.8883772       -103.5268        0.4585515        -13.5223
1.6105                 0.4566764       -14.46325        0.8893396       -104.4681        0.8893396       -104.4681        0.4566764       -14.46324
1.6264                 0.4546736       -15.40627        0.8903626       -105.4115        0.8903626       -105.4115        0.4546736       -15.40627
1.6423                 0.4525423       -16.35155        0.8914449       -106.3572        0.8914449       -106.3572        0.4525423       -16.35155
1.6582                 0.4502819       -17.29918         0.892586       -107.3052        0.8925859       -107.3052        0.4502819       -17.29919
1.6741                 0.4478918       -18.24931        0.8937849       -108.2557         0.893785       -108.2557        0.4478918       -18.24933
1.69                   0.4453713       -19.20205        0.8950405       -109.2089        0.8950405       -109.2089        0.4453713       -19.20207
1.7059                 0.4427198       -20.15753         0.896352       -110.1648         0.896352       -110.1648        0.4427198       -20.15756
1.7218                 0.4399366       -21.11588        0.8977184       -111.1235        0.8977184       -111.1235        0.4399366       -21.11592
1.7377                 0.4370209        -22.0772        0.8991384       -112.0853        0.8991384       -112.0853        0.4370209       -22.07725
1.7536                 0.4339721       -23.04163        0.9006108       -113.0502        0.9006108       -113.0502        0.4339721       -23.04168
1.7695                 0.4307895       -24.00926        0.9021345       -114.0183        0.9021344       -114.0183        0.4307895       -24.00932
1.7854                 0.4274722       -24.98025        0.9037081       -114.9897        0.9037081       -114.9897        0.4274722       -24.98031
1.8013                 0.4240196       -25.95466        0.9053301       -115.9646        0.9053299       -115.9647        0.4240196       -25.95473
1.8172                  0.420431       -26.93262        0.9069989       -116.9431        0.9069988       -116.9431         0.420431        -26.9327
1.8331                 0.4167057       -27.91424        0.9087134       -117.9252        0.9087134       -117.9252        0.4167057       -27.91433
1.849                  0.4128429       -28.89962        0.9104716       -118.9112        0.9104716       -118.9112        0.4128429       -28.89971
1.8649                  0.408842       -29.88884        0.9122718       -119.9009        0.9122719       -119.9009         0.408842       -29.88894
1.8808                 0.4047023       -30.88204        0.9141127       -120.8947        0.9141126       -120.8947        0.4047023       -30.88215
1.8967                 0.4004233       -31.87929        0.9159919       -121.8925         0.915992       -121.8925        0.4004233        -31.8794
1.9126                 0.3960042       -32.88064        0.9179075       -122.8945        0.9179076       -122.8945        0.3960042       -32.88076
1.9285                 0.3914446       -33.88625        0.9198581       -123.9007        0.9198581       -123.9007        0.3914446       -33.88638
1.9444                 0.3867439       -34.89615        0.9218408       -124.9112        0.9218407       -124.9112        0.3867439       -34.89628
1.9603                 0.3819017       -35.91042         0.923854       -125.9262         0.923854       -125.9262        0.3819017       -35.91056
1.9762                 0.3769175       -36.92917        0.9258954       -126.9456        0.9258954       -126.9456        0.3769175       -36.92932
1.9921                  0.371791       -37.95242        0.9279623       -127.9696        0.9279624       -127.9696         0.371791       -37.95258
2.008                  0.3665218       -38.98028        0.9300526       -128.9982        0.9300527       -128.9982        0.3665218       -38.98044
2.0239                 0.3611098       -40.01277        0.9321638       -130.0314        0.9321638       -130.0314        0.3611098       -40.01294
2.0398                 0.3555548       -41.04998        0.9342935       -131.0694        0.9342936       -131.0694        0.3555548       -41.05016
2.0557                 0.3498569       -42.09192        0.9364387       -132.1122        0.9364387       -132.1122        0.3498569        -42.0921
2.0716                 0.3440159       -43.13862        0.9385966       -133.1597        0.9385967       -133.1597        0.3440159       -43.13882
2.0875                 0.3380321       -44.19013        0.9407646       -134.2122        0.9407646       -134.2122        0.3380321       -44.19034
2.1034                 0.3319058       -45.24651          0.94294       -135.2695        0.9429401       -135.2695        0.3319058       -45.24672
2.1193                 0.3256371       -46.30778        0.9451198       -136.3317        0.9451198       -136.3317        0.3256371         -46.308
2.1352                 0.3192268        -47.3739        0.9473007       -137.3988        0.9473008       -137.3988        0.3192268       -47.37414
2.1511                 0.3126752       -48.44491        0.9494798       -138.4709        0.9494798       -138.4709        0.3126752       -48.44516
2.167                  0.3059834       -49.52083        0.9516542        -139.548        0.9516543        -139.548        0.3059834       -49.52109
2.1829                 0.2991519       -50.60161        0.9538201         -140.63        0.9538201         -140.63        0.2991519       -50.60187
2.1988                 0.2921819       -51.68727        0.9559749       -141.7169        0.9559749       -141.7169        0.2921819       -51.68755
2.2147                 0.2850746       -52.77778         0.958115       -142.8087         0.958115       -142.8087        0.2850746       -52.77806
2.2306                 0.2778314       -53.87309        0.9602371       -143.9054        0.9602372       -143.9054        0.2778314       -53.87339
2.2465                 0.2704537       -54.97316        0.9623377       -145.0069        0.9623377       -145.0069        0.2704537       -54.97347
2.2624                 0.2629434       -56.07794        0.9644137       -146.1133        0.9644138       -146.1133        0.2629434       -56.07827
2.2783                 0.2553019       -57.18738        0.9664614       -147.2244        0.9664614       -147.2244        0.2553019       -57.18772
2.2942                 0.2475317       -58.30141        0.9684774       -148.3402        0.9684775       -148.3402        0.2475317       -58.30176
2.3101                 0.2396346       -59.41994        0.9704583       -149.4606        0.9704584       -149.4606        0.2396346       -59.42031
2.326                  0.2316132       -60.54291        0.9724009       -150.5856        0.9724009       -150.5856        0.2316132        -60.5433
2.3419                 0.2234704       -61.67014        0.9743012       -151.7151        0.9743012       -151.7151        0.2234704       -61.67055
2.3578                 0.2152085       -62.80161        0.9761563       -152.8489        0.9761563       -152.8489        0.2152085       -62.80204
2.3737                 0.2068307       -63.93717        0.9779628       -153.9871        0.9779628       -153.9871        0.2068307       -63.93762
2.3896                 0.1983403       -65.07663         0.979717       -155.1294        0.9797169       -155.1294        0.1983403       -65.07711
2.4055                 0.1897404       -66.21993         0.981416       -156.2757         0.981416       -156.2757        0.1897404       -66.22043
2.4214                 0.1810349       -67.36679        0.9830562        -157.426        0.9830561        -157.426        0.1810349       -67.36732
2.4373                 0.1722274       -68.51714        0.9846349       -158.5801        0.9846349       -158.5801        0.1722274       -68.51771
2.4532                 0.1633217       -69.67068        0.9861484       -159.7378        0.9861484       -159.7378        0.1633217       -69.67128
2.4691                 0.1543224       -70.82724        0.9875941        -160.899        0.9875941        -160.899        0.1543224       -70.82788
2.485                  0.1452333       -71.98654         0.988969       -162.0635         0.988969       -162.0635        0.1452333       -71.98723
2.5009                 0.1360595        -73.1483        0.9902704       -163.2313        0.9902704       -163.2313        0.1360595       -73.14903
2.5168                 0.1268052       -74.31218        0.9914956        -164.402        0.9914956        -164.402        0.1268052       -74.31297
2.5327                 0.1174755       -75.47778         0.992642       -165.5755         0.992642       -165.5755        0.1174755       -75.47865
2.5486                 0.1080754       -76.64462        0.9937071       -166.7517        0.9937071       -166.7517        0.1080754       -76.64556
2.5645                0.09861031       -77.81209        0.9946889       -167.9304        0.9946889       -167.9304       0.09861031       -77.81313
2.5804                0.08908509       -78.97943        0.9955852       -169.1113        0.9955852       -169.1113       0.08908508       -78.98058
2.5963                0.07950573       -80.14554        0.9963941       -170.2942        0.9963942       -170.2942       0.07950573       -80.14683
2.6122                0.06987753       -81.30878        0.9971138       -171.4789        0.9971138       -171.4789       0.06987752       -81.31025
2.6281                0.06020598       -82.46677        0.9977428       -172.6653        0.9977428       -172.6653       0.06020598       -82.46848
2.644                 0.05049736       -83.61523        0.9982797       -173.8531        0.9982797       -173.8531       0.05049736       -83.61727
2.6599                0.04075725       -84.74596        0.9987232       -175.0421        0.9987231       -175.0421       0.04075724        -84.7485
2.6758                0.03099178       -85.84118        0.9990726        -176.232        0.9990726        -176.232       0.03099177       -85.84452
2.6917                0.02120718       -86.84933        0.9993268       -177.4227        0.9993267       -177.4227       0.02120717       -86.85422
2.7076                0.01140971       -87.54529        0.9994856       -178.6139        0.9994856       -178.6139       0.01140967       -87.55437
2.7235               0.001616242       -82.21911        0.9995483       -179.8053        0.9995482       -179.8053      0.001616005       -82.28263
2.7394               0.008207569        87.51078         0.999515        179.0031         0.999515        179.0031      0.008207522        87.52339
2.7553                0.01800765        87.13063        0.9993857        177.8118        0.9993857        177.8118       0.01800763        87.13637
2.7712                0.02779792        86.17909        0.9991605        176.6208        0.9991605        176.6208       0.02779791         86.1828
2.7871                0.03757121        85.10367        0.9988403        175.4305        0.9988404        175.4305        0.0375712         85.1064
2.803                 0.04732132        83.98136        0.9984252         174.241        0.9984251         174.241       0.04732131        83.98352
2.8189                0.05704235         82.8374        0.9979168        173.0526        0.9979168        173.0526       0.05704235        82.83919
2.8348                 0.0667281        81.68165        0.9973155        171.8656        0.9973154        171.8656       0.06672809        81.68318
2.8507                0.07637286        80.51965        0.9966234          170.68        0.9966234          170.68       0.07637286        80.52098
2.8666                0.08597111        79.35396        0.9958412        169.4961        0.9958413        169.4961       0.08597111        79.35513
2.8825                0.09551672        78.18656        0.9949709        168.3143        0.9949709        168.3143       0.09551671        78.18761
2.8984                 0.1050047        77.01867        0.9940145        167.1345        0.9940145        167.1345        0.1050047        77.01962
2.9143                 0.1144293        75.85118         0.992974        165.9571         0.992974        165.9571        0.1144293        75.85205
2.9302                 0.1237854        74.68472        0.9918515        164.7823        0.9918515        164.7823        0.1237854        74.68551
2.9461                 0.1330679        73.51981        0.9906493        163.6101        0.9906494        163.6101        0.1330679        73.52054
2.962                  0.1422718        72.35681        0.9893698        162.4409        0.9893698        162.4409        0.1422718         72.3575
2.9779                 0.1513925        71.19615        0.9880159        161.2748        0.9880158        161.2748        0.1513925        71.19679
2.9938                 0.1604252        70.03819        0.9865904        160.1119        0.9865905        160.1119        0.1604252        70.03879
3.0097                 0.1693656        68.88305        0.9850957        158.9525        0.9850958        158.9525        0.1693656        68.88361
3.0256                 0.1782094        67.73103        0.9835351        157.7966        0.9835351        157.7966        0.1782094        67.73155
3.0415                 0.1869527        66.58238        0.9819117        156.6444        0.9819116        156.6444        0.1869527        66.58288
3.0574                 0.1955915        65.43726        0.9802285        155.4961        0.9802285        155.4961        0.1955915        65.43773
3.0733                 0.2041221        64.29586        0.9784888        154.3518        0.9784887        154.3518        0.2041221         64.2963
3.0892                 0.2125411        63.15831        0.9766958        153.2115        0.9766957        153.2115        0.2125411        63.15873
3.1051                 0.2208454        62.02477        0.9748529        152.0755        0.9748529        152.0755        0.2208454        62.02517
3.121                  0.2290319        60.89534        0.9729635        150.9438        0.9729634        150.9438        0.2290319        60.89573
3.1369                 0.2370974        59.77021         0.971031        149.8165        0.9710311        149.8165        0.2370974        59.77058
3.1528                 0.2450394        58.64943        0.9690588        148.6938        0.9690587        148.6938        0.2450394        58.64978
3.1687                 0.2528558        57.53309        0.9670503        147.5756        0.9670504        147.5756        0.2528558        57.53343
3.1846                 0.2605437        56.42129        0.9650089         146.462         0.965009         146.462        0.2605437        56.42161
3.2005                 0.2681014        55.31411        0.9629384        145.3532        0.9629385        145.3532        0.2681014        55.31442
3.2164                 0.2755268        54.21159        0.9608417        144.2491        0.9608418        144.2491        0.2755268        54.21188
3.2323                 0.2828182        53.11381        0.9587226        143.1499        0.9587227        143.1499        0.2828182        53.11409
3.2482                  0.289974         52.0208        0.9565843        142.0555        0.9565844        142.0555         0.289974        52.02107