! TOUCHSTONE file generated by CST MICROWAVE STUDIO
! Date and time: Mon Mar 13 18:03:51 2023
! Project name: Untitled_0.cst
! Header version: 2018
! Port assignment regex: !\s*Touchstone port\s*([0-9]+)\s*=\s*(CST MWS port|CST DS port)\s*([0-9]+|Zmin|Zmax)\s*\(\"(.*)\"\)(\s*mode\s*([0-9]+))?.*
! Touchstone port assignment:
! Touchstone port 1 = CST MWS port 1 ("")
! Touchstone port 2 = CST MWS port 2 ("")
# GHz S MA R 50
0.1                   0.02354268        80.60011        0.9997228       -9.657712        0.9997227       -9.657712       0.02354268         80.0844
0.1159                0.02723978        79.02887        0.9996264       -11.19261        0.9996264       -11.19261       0.02723979        78.58445
0.1318                0.03091661        77.46655        0.9995165       -12.72721        0.9995165       -12.72721       0.03091661        77.07628
0.1477                0.03457044        75.91045        0.9993937       -14.26147        0.9993937       -14.26147       0.03457045        75.56274
0.1636                0.03819857        74.35887        0.9992581       -15.79536         0.999258       -15.79536       0.03819858        74.04549
0.1795                0.04179836        72.81083        0.9991104       -17.32884        0.9991105       -17.32885       0.04179837        72.52574
0.1954                0.04536712        71.26553        0.9989509       -18.86188        0.9989509       -18.86188       0.04536713        71.00417
0.2113                0.04890227        69.72252          0.99878       -20.39443          0.99878       -20.39443       0.04890229        69.48135
0.2272                0.05240125        68.18144        0.9985983       -21.92648        0.9985982       -21.92648       0.05240127        67.95766
0.2431                 0.0558615        66.64208        0.9984063       -23.45797        0.9984063       -23.45798       0.05586152        66.43344
0.259                 0.05928052        65.10422        0.9982046        -24.9889        0.9982045        -24.9889       0.05928054         64.9089
0.2749                0.06265588        63.56778        0.9979938       -26.51922        0.9979937       -26.51922       0.06265589        63.38425
0.2908                0.06598512        62.03263        0.9977745        -28.0489        0.9977745        -28.0489       0.06598514        61.85962
0.3067                0.06926591        60.49868        0.9975473       -29.57794        0.9975473       -29.57794       0.06926593        60.33513
0.3226                0.07249591        58.96589        0.9973129        -31.1063        0.9973128       -31.10629       0.07249593        58.81088
0.3385                0.07567285        57.43422         0.997072       -32.63395        0.9970719       -32.63395       0.07567287        57.28696
0.3544                0.07879451        55.90366        0.9968254       -34.16088        0.9968254       -34.16088       0.07879453        55.76348
0.3703                0.08185872        54.37412        0.9965735       -35.68709        0.9965735       -35.68709       0.08185874        54.24041
0.3862                0.08486333        52.84562        0.9963172       -37.21254        0.9963171       -37.21254       0.08486335        52.71787
0.4021                 0.0878063        51.31814        0.9960572       -38.73722        0.9960572       -38.73722       0.08780632        51.19589
0.418                 0.09068562        49.79164        0.9957943       -40.26114        0.9957943       -40.26114       0.09068564        49.67449
0.4339                0.09349933        48.26612        0.9955291       -41.78427        0.9955291       -41.78428       0.09349935        48.15371
0.4498                0.09624553        46.74157        0.9952625       -43.30662        0.9952625       -43.30662       0.09624555        46.63357
0.4657                0.09892237        45.21797        0.9949952       -44.82817        0.9949951       -44.82817       0.09892239         45.1141
0.4816                 0.1015281        43.69533         0.994728       -46.34892        0.9947281       -46.34892        0.1015281        43.59532
0.4975                  0.104061        42.17358        0.9944614       -47.86889        0.9944614        -47.8689         0.104061        42.07721
0.5134                 0.1065193        40.65277        0.9941965       -49.38807        0.9941965       -49.38807        0.1065193        40.55981
0.5293                 0.1089015        39.13282        0.9939336       -50.90646        0.9939336       -50.90647        0.1089015         39.0431
0.5452                 0.1112061        37.61377        0.9936737       -52.42408        0.9936737       -52.42408        0.1112061        37.52709
0.5611                 0.1134315        36.09558        0.9934176       -53.94093        0.9934176       -53.94092        0.1134315        36.01179
0.577                  0.1155763        34.57822        0.9931657       -55.45703        0.9931658       -55.45703        0.1155763        34.49717
0.5929                 0.1176392        33.06167         0.992919       -56.97239        0.9929189       -56.97239        0.1176392        32.98324
0.6088                 0.1196188        31.54593        0.9926779       -58.48701        0.9926778       -58.48701        0.1196188        31.46998
0.6247                  0.121514        30.03094        0.9924431       -60.00096        0.9924431       -60.00096         0.121514        29.95736
0.6406                 0.1233235        28.51672        0.9922154        -61.5142        0.9922154        -61.5142        0.1233235        28.44541
0.6565                 0.1250462        27.00322        0.9919954       -63.02678        0.9919954       -63.02678        0.1250463        26.93407
0.6724                 0.1266811         25.4904        0.9917835       -64.53873        0.9917834       -64.53873        0.1266811        25.42333
0.6883                 0.1282272        23.97826        0.9915804       -66.05005        0.9915804       -66.05005        0.1282272         23.9132
0.7042                 0.1296834        22.46674        0.9913867        -67.5608        0.9913867        -67.5608        0.1296834         22.4036
0.7201                  0.131049        20.95584        0.9912027       -69.07098        0.9912027       -69.07098         0.131049        20.89454
0.736                  0.1323231        19.44548        0.9910293       -70.58065        0.9910293       -70.58065        0.1323231        19.38598
0.7519                 0.1335049        17.93568        0.9908664       -72.08981        0.9908665       -72.08982        0.1335049         17.8779
0.7678                 0.1345937        16.42637        0.9907148       -73.59851        0.9907148       -73.59851        0.1345937        16.37027
0.7837                  0.135589        14.91751        0.9905749        -75.1068        0.9905748        -75.1068         0.135589        14.86303
0.7996                 0.1364901        13.40908        0.9904469        -76.6147        0.9904469        -76.6147        0.1364901        13.35617
0.8155                 0.1372964        11.90101        0.9903312       -78.12226        0.9903312       -78.12226        0.1372964        11.84962
0.8314                 0.1380075        10.39332        0.9902281       -79.62948        0.9902281       -79.62948        0.1380075        10.34341
0.8473                 0.1386229        8.885942        0.9901379       -81.13642        0.9901378       -81.13642        0.1386229        8.837481
0.8632                 0.1391424        7.378803        0.9900608       -82.64314        0.9900607       -82.64314        0.1391424        7.331754
0.8791                 0.1395656        5.871894         0.989997       -84.14966         0.989997       -84.14966        0.1395656        5.826224
0.895                  0.1398923        4.365172        0.9899467       -85.65602        0.9899467       -85.65602        0.1398923        4.320852
0.9109                 0.1401222        2.858595        0.9899099       -87.16226        0.9899098       -87.16226        0.1401222        2.815597
0.9268                 0.1402553        1.352094        0.9898869       -88.66845        0.9898869       -88.66845        0.1402553        1.310392
0.9427                 0.1402915      -0.1543478        0.9898776        -90.1746        0.9898775        -90.1746        0.1402915      -0.1947743
0.9586                 0.1402306       -1.660771        0.9898819       -91.68076        0.9898819       -91.68076        0.1402306       -1.699944
0.9745                 0.1400729        -3.16722           0.9899       -93.18696        0.9898999       -93.18697        0.1400729       -3.205155
0.9904                 0.1398183       -4.673762        0.9899318       -94.69329        0.9899318       -94.69329        0.1398183       -4.710477
1.0063                  0.139467       -6.180413         0.989977       -96.19974         0.989977       -96.19974         0.139467       -6.215922
1.0222                 0.1390193       -7.687187        0.9900358       -97.70633        0.9900358       -97.70633        0.1390193       -7.721502
1.0381                 0.1384753       -9.194204        0.9901078       -99.21319        0.9901077       -99.21319        0.1384753       -9.227335
1.054                  0.1378354       -10.70145        0.9901928       -100.7203        0.9901928       -100.7203        0.1378354       -10.73341
1.0699                    0.1371       -12.20897        0.9902906       -102.2277        0.9902906       -102.2277           0.1371       -12.23976
1.0858                 0.1362695       -13.71678        0.9904009       -103.7354        0.9904009       -103.7354        0.1362694        -13.7464
1.1017                 0.1353443       -15.22498        0.9905235       -105.2435        0.9905235       -105.2435        0.1353443       -15.25343
1.1176                 0.1343251       -16.73354        0.9906579       -106.7521        0.9906579       -106.7521        0.1343251       -16.76083
1.1335                 0.1332124       -18.24255        0.9908038        -108.261        0.9908038        -108.261        0.1332124       -18.26867
1.1494                 0.1320069       -19.75201        0.9909609       -109.7705        0.9909609       -109.7705        0.1320069       -19.77696
1.1653                 0.1307094       -21.26196        0.9911285       -111.2804        0.9911284       -111.2804        0.1307094       -21.28573
1.1812                 0.1293205       -22.77245        0.9913063       -112.7909        0.9913063       -112.7909        0.1293205       -22.79504
1.1971                 0.1278411       -24.28349        0.9914937        -114.302        0.9914936        -114.302        0.1278411       -24.30488
1.213                  0.1262722       -25.79511        0.9916903       -115.8137        0.9916903       -115.8137        0.1262722       -25.81529
1.2289                 0.1246146       -27.30735        0.9918956       -117.3261        0.9918956       -117.3261        0.1246146       -27.32631
1.2448                 0.1228695        -28.8202        0.9921088        -118.839        0.9921088        -118.839        0.1228695       -28.83791
1.2607                 0.1210378       -30.33372        0.9923296       -120.3527        0.9923296       -120.3527        0.1210378       -30.35017
1.2766                 0.1191208       -31.84792        0.9925571       -121.8671         0.992557       -121.8671        0.1191208       -31.86307
1.2925                 0.1171195       -33.36283        0.9927907       -123.3822        0.9927906       -123.3822        0.1171195       -33.37666
1.3084                 0.1150353       -34.87846        0.9930299        -124.898        0.9930299        -124.898        0.1150353       -34.89092
1.3243                 0.1128695       -36.39481         0.993274       -126.4146         0.993274       -126.4146        0.1128695       -36.40588
1.3402                 0.1106234       -37.91191        0.9935222        -127.932        0.9935222        -127.932        0.1106234       -37.92154
1.3561                 0.1082985       -39.42976        0.9937738       -129.4502        0.9937737       -129.4502        0.1082985       -39.43791
1.372                  0.1058963       -40.94839        0.9940282       -130.9692        0.9940282       -130.9692        0.1058963         -40.955
1.3879                 0.1034183       -42.46775        0.9942844       -132.4889        0.9942845       -132.4889        0.1034183       -42.47276
1.4038                 0.1008662       -43.98789         0.994542       -134.0095         0.994542       -134.0095        0.1008662       -43.99123
1.4197                0.09824167       -45.50883        0.9948003       -135.5309        0.9948003       -135.5309       0.09824167       -45.51043
1.4356                0.09554643       -47.03049        0.9950582       -137.0531        0.9950583       -137.0531       0.09554643       -47.03026
1.4515                0.09278221       -48.55293        0.9953151       -138.5761         0.995315       -138.5761       0.09278221       -48.55077
1.4674                0.08995094       -50.07614        0.9955706       -140.0999        0.9955706       -140.0999       0.08995094       -50.07195
1.4833                0.08705453       -51.60005        0.9958234       -141.6245        0.9958234       -141.6245       0.08705454        -51.5937
1.4992                0.08409489       -53.12474        0.9960732       -143.1499        0.9960733       -143.1499       0.08409489       -53.11609
1.5151                 0.0810741       -54.65008        0.9963189       -144.6761        0.9963189       -144.6761       0.08107411       -54.63899
1.531                  0.0779942       -56.17617        0.9965603       -146.2031        0.9965604       -146.2031       0.07799421       -56.16244
1.5469                0.07485738       -57.70287        0.9967962       -147.7308        0.9967963       -147.7308       0.07485739       -57.68629
1.5628                0.07166577       -59.23022        0.9970262       -149.2593        0.9970263       -149.2593       0.07166579       -59.21056
1.5787                0.06842167       -60.75811        0.9972494       -150.7885        0.9972493       -150.7885       0.06842169       -60.73508
1.5946                0.06512731       -62.28662        0.9974655       -152.3183        0.9974655       -152.3183       0.06512733       -62.25989
1.6105                0.06178498       -63.81561        0.9976734       -153.8489        0.9976734       -153.8489       0.06178501        -63.7848
1.6264                 0.0583972       -65.34504        0.9978728       -155.3801        0.9978727       -155.3801       0.05839723       -65.30967
1.6423                0.05496628       -66.87489        0.9980632       -156.9119        0.9980632       -156.9119       0.05496632       -66.83443
1.6582                0.05149475       -68.40501        0.9982437       -158.4444        0.9982437       -158.4444       0.05149479       -68.35876
1.6741                0.04798509       -69.93535         0.998414       -159.9773         0.998414       -159.9773       0.04798514       -69.88249
1.69                  0.04443986       -71.46581        0.9985736       -161.5109        0.9985737       -161.5109       0.04443992       -71.40528
1.7059                0.04086159       -72.99618        0.9987218       -163.0449        0.9987218       -163.0449       0.04086166       -72.92667
1.7218                0.03725299       -74.52632        0.9988585       -164.5794        0.9988585       -164.5794       0.03725307       -74.44609
1.7377                0.03361665       -76.05588        0.9989829       -166.1143        0.9989828       -166.1143       0.03361675       -75.96263
1.7536                0.02995527       -77.58457        0.9990949       -167.6496        0.9990949       -167.6496       0.02995539       -77.47513
1.7695                0.02627158       -79.11168         0.999194       -169.1852        0.9991939       -169.1852       0.02627173       -78.98153
1.7854                0.02256825       -80.63635          0.99928       -170.7212          0.99928       -170.7212       0.02256843       -80.47869
1.8013                0.01884805       -82.15679        0.9993526       -172.2574        0.9993526       -172.2574       0.01884828       -81.96081
1.8172                0.01511378       -83.66956        0.9994115       -173.7939        0.9994114       -173.7939       0.01511407       -83.41635
1.8331                0.01136816       -85.16711        0.9994568       -175.3306        0.9994567       -175.3306       0.01136857       -84.81899
1.849                0.007614061       -86.62629        0.9994881       -176.8673        0.9994881       -176.8673      0.007614695       -86.08979
1.8649               0.003854318       -87.93355        0.9995051       -178.4042         0.999505       -178.4042      0.003855622       -86.84161
1.8808              9.660195e-05       -71.07867        0.9995082       -179.9412        0.9995081       -179.9412     0.0001406083       -40.49285
1.8967               0.003671497        88.04171        0.9994972        178.5218        0.9994972        178.5218       0.00367297        86.82989
1.9126               0.007431549        86.75121        0.9994719        176.9849        0.9994718        176.9849      0.007432302        86.13676
1.9285                0.01118609        85.29537        0.9994326         175.448        0.9994326         175.448       0.01118661        84.87705
1.9444                 0.0149323        83.79891        0.9993794        173.9113        0.9993793        173.9113        0.0149327        83.47819
1.9603                0.01866738        82.28647        0.9993122        172.3747        0.9993122        172.3747       0.01866771        82.02421
1.9762                0.02238854        80.76626        0.9992316        170.8383        0.9992316        170.8383       0.02238882        80.54297
1.9921                0.02609298        79.24171        0.9991376        169.3021        0.9991376        169.3021       0.02609323        79.04629
2.008                 0.02977805         77.7145        0.9990303        167.7662        0.9990302        167.7662       0.02977827        77.54001
2.0239                0.03344087         76.1858        0.9989103        166.2307        0.9989103        166.2307       0.03344107        76.02763
2.0398                0.03707887        74.65606        0.9987776        164.6955        0.9987776        164.6955       0.03707905        74.51098
2.0557                0.04068932        73.12581         0.998633        163.1607        0.9986331        163.1606       0.04068949        72.99147
2.0716                0.04426951        71.59523        0.9984765        161.6263        0.9984765        161.6263       0.04426967        71.46987
2.0875                0.04781686         70.0646        0.9983088        160.0924        0.9983088        160.0924       0.04781701        69.94687
2.1034                0.05132877        68.53405        0.9981304         158.559        0.9981304         158.559       0.05132891        68.42289
2.1193                0.05480273        67.00366        0.9979416        157.0261        0.9979415        157.0261       0.05480286        66.89822
2.1352                0.05823619        65.47359        0.9977431        155.4938        0.9977431        155.4938       0.05823631        65.37317
2.1511                0.06162667        63.94389        0.9975355        153.9621        0.9975356        153.9621       0.06162679        63.84792
2.167                 0.06497174         62.4146        0.9973193         152.431        0.9973193         152.431       0.06497185        62.32262
2.1829                0.06826904        60.88581        0.9970951        150.9006        0.9970951        150.9006       0.06826915        60.79741
2.1988                0.07151621        59.35753        0.9968634        149.3708        0.9968634        149.3708       0.07151631        59.27238
2.2147                0.07471094        57.82985        0.9966252        147.8418        0.9966251        147.8418       0.07471104        57.74765
2.2306                  0.077851        56.30281         0.996381        146.3134        0.9963811        146.3134        0.0778511         56.2233
2.2465                0.08093422        54.77637        0.9961314        144.7858        0.9961313        144.7858       0.08093431        54.69934
2.2624                0.08395847        53.25063        0.9958774        143.2589        0.9958774        143.2588       0.08395856        53.17589
2.2783                0.08692156        51.72558        0.9956193        141.7327        0.9956193        141.7327       0.08692165        51.65297
2.2942                0.08982158        50.20122         0.995358        140.2073         0.995358        140.2073       0.08982166        50.13058
2.3101                0.09265654         48.6776        0.9950944        138.6827        0.9950945        138.6827       0.09265661         48.6088
2.326                 0.09542443        47.15472         0.994829        137.1589         0.994829        137.1589       0.09542451        47.08764
2.3419                0.09812345         45.6326        0.9945628        135.6359        0.9945627        135.6359       0.09812352        45.56713
2.3578                 0.1007518         44.1112        0.9942961        134.1136        0.9942962        134.1136        0.1007519        44.04726
2.3737                 0.1033078         42.5906        0.9940303        132.5921        0.9940304        132.5921        0.1033078        42.52809
2.3896                 0.1057896        41.07071        0.9937654        131.0714        0.9937655        131.0714        0.1057897        41.00956
2.4055                 0.1081957        39.55161        0.9935027        129.5515        0.9935026        129.5515        0.1081957        39.49173
2.4214                 0.1105245        38.03324        0.9932427        128.0324        0.9932426        128.0324        0.1105245        37.97459
2.4373                 0.1127745        36.51562        0.9929861         126.514        0.9929861         126.514        0.1127745        36.45813
2.4532                 0.1149442        34.99875        0.9927337        124.9963        0.9927337        124.9963        0.1149442        34.94236
2.4691                 0.1170323        33.48256        0.9924862        123.4794        0.9924862        123.4794        0.1170324        33.42724
2.485                  0.1190374        31.96712        0.9922441        121.9632         0.992244        121.9632        0.1190375        31.91281
2.5009                 0.1209583        30.45235        0.9920082        120.4477        0.9920081        120.4477        0.1209584          30.399
2.5168                 0.1227938        28.93824        0.9917792        118.9329        0.9917792        118.9329        0.1227939        28.88583
2.5327                 0.1245428         27.4248        0.9915576        117.4187        0.9915576        117.4187        0.1245428        27.37328
2.5486                  0.126204        25.91199         0.991344        115.9052        0.9913439        115.9052         0.126204        25.86133
2.5645                 0.1277766         24.3998         0.991139        114.3923         0.991139        114.3923        0.1277766        24.34997
2.5804                 0.1292595        22.88815        0.9909431        112.8799        0.9909431        112.8799        0.1292595        22.83913
2.5963                 0.1306519        21.37707         0.990757        111.3681         0.990757        111.3681        0.1306519        21.32883
2.6122                 0.1319529        19.86651        0.9905812        109.8569        0.9905812        109.8569        0.1319529        19.81902
2.6281                 0.1331617        18.35644        0.9904159        108.3461         0.990416        108.3461        0.1331617        18.30968
2.644                  0.1342776        16.84681        0.9902617        106.8357        0.9902617        106.8357        0.1342776        16.80076
2.6599                    0.1353         15.3376        0.9901191        105.3258        0.9901192        105.3258           0.1353        15.29225
2.6758                 0.1362281        13.82881        0.9899884        103.8163        0.9899884        103.8163        0.1362281        13.78412
2.6917                 0.1370615        12.32036        0.9898699        102.3071        0.9898699        102.3071        0.1370615        12.27633
2.7076                 0.1377997        10.81222        0.9897639        100.7982        0.9897639        100.7982        0.1377997        10.76884
2.7235                 0.1384422        9.304357        0.9896708         99.2896        0.9896708         99.2896        0.1384422        9.261596
2.7394                 0.1389887        7.796728        0.9895908        97.78122        0.9895908        97.78122        0.1389887         7.75458
2.7553                 0.1394388        6.289306        0.9895239        96.27303        0.9895239        96.27303        0.1394388        6.247759
2.7712                 0.1397922         4.78204        0.9894706        94.76499        0.9894706        94.76499        0.1397923        4.741082
2.7871                 0.1400489        3.274902        0.9894309        93.25707        0.9894309        93.25707        0.1400489        3.234525
2.803                  0.1402085        1.767826        0.9894049        91.74919        0.9894049        91.74919        0.1402085        1.728019
2.8189                  0.140271       0.2607973        0.9893926        90.24135        0.9893926        90.24135         0.140271       0.2215527
2.8348                 0.1402363       -1.246238         0.989394        88.73349        0.9893939        88.73349        0.1402363       -1.284928
2.8507                 0.1401046       -2.753309        0.9894093        87.22558        0.9894092        87.22558        0.1401046        -2.79145
2.8666                 0.1398758       -4.260481        0.9894382        85.71755        0.9894381        85.71755        0.1398758        -4.29808
2.8825                   0.13955       -5.767782        0.9894807        84.20938        0.9894807        84.20938          0.13955       -5.804844
2.8984                 0.1391275       -7.275225        0.9895367        82.70104        0.9895366        82.70104        0.1391275       -7.311754
2.9143                 0.1386086       -8.782883        0.9896061        81.19246         0.989606        81.19248        0.1386086       -8.818883
2.9302                 0.1379934        -10.2908        0.9896887        79.68362        0.9896887        79.68362        0.1379934       -10.32628
2.9461                 0.1372824         -11.799        0.9897842        78.17446        0.9897841        78.17446        0.1372824       -11.83395
2.962                   0.136476        -13.3075        0.9898922        76.66497        0.9898922        76.66499         0.136476       -13.34193
2.9779                 0.1355746       -14.81639        0.9900126        75.15508        0.9900126        75.15508        0.1355746        -14.8503
2.9938                 0.1345788       -16.32566        0.9901451        73.64479        0.9901451        73.64479        0.1345788       -16.35903
3.0097                 0.1334891       -17.83535        0.9902891        72.13403        0.9902891        72.13403        0.1334891        -17.8682
3.0256                 0.1323062       -19.34551        0.9904444        70.62278        0.9904444        70.62278        0.1323062       -19.37783
3.0415                 0.1310309       -20.85616        0.9906105          69.111        0.9906105          69.111        0.1310309       -20.88795
3.0574                 0.1296638       -22.36733        0.9907869        67.59867        0.9907869        67.59867        0.1296638       -22.39858
3.0733                 0.1282058       -23.87905        0.9909733        66.08574        0.9909733        66.08574        0.1282058       -23.90977
3.0892                 0.1266578       -25.39136        0.9911689        64.57219        0.9911689        64.57219        0.1266578       -25.42152
3.1051                 0.1250207       -26.90426        0.9913733        63.05799        0.9913733        63.05799        0.1250206       -26.93388
3.121                  0.1232955        -28.4178         0.991586        61.54312         0.991586        61.54312        0.1232954       -28.44685
3.1369                 0.1214832       -29.93198        0.9918062        60.02756        0.9918062        60.02756        0.1214832       -29.96045
3.1528                 0.1195851       -31.44682        0.9920334        58.51127        0.9920334        58.51127         0.119585       -31.47471
3.1687                 0.1176022       -32.96235        0.9922672        56.99424        0.9922672        56.99424        0.1176022       -32.98964
3.1846                 0.1155358       -34.47857        0.9925064        55.47645        0.9925064        55.47645        0.1155358       -34.50524
3.2005                 0.1133873       -35.99549        0.9927508        53.95789        0.9927508        53.95789        0.1133873       -36.02153
3.2164                 0.1111579       -37.51313        0.9929996        52.43853        0.9929996        52.43853        0.1111579       -37.53853
3.2323                 0.1088492       -39.03149        0.9932519        50.91837        0.9932518        50.91837        0.1088492       -39.05621
3.2482                 0.1064625       -40.55057        0.9935072         49.3974        0.9935072         49.3974        0.1064625        -40.5746