! TOUCHSTONE file generated by CST MICROWAVE STUDIO
! Date and time: Mon Mar 13 18:18:00 2023
! Project name: Untitled_0.cst
! Header version: 2018
! Port assignment regex: !\s*Touchstone port\s*([0-9]+)\s*=\s*(CST MWS port|CST DS port)\s*([0-9]+|Zmin|Zmax)\s*\(\"(.*)\"\)(\s*mode\s*([0-9]+))?.*
! Touchstone port assignment:
! Touchstone port 1 = CST MWS port 1 ("")
! Touchstone port 2 = CST MWS port 2 ("")
# GHz S MA R 50
0.1                    0.9310978      -0.4165389     5.562202e-05        33.61546     5.562526e-05        33.61434        0.9310977      -0.4165389
0.1159                 0.9314319      -0.4176713     5.407146e-05        35.79232     5.407378e-05        35.79101        0.9314318      -0.4176718
0.1318                 0.9317765      -0.4578331     5.439245e-05        40.71106     5.439423e-05        40.71009        0.9317764      -0.4578332
0.1477                 0.9317502      -0.5206515     5.760584e-05        45.76286     5.760768e-05        45.76228          0.93175       -0.520651
0.1636                 0.9312753      -0.5820429     6.277387e-05        48.94734      6.27761e-05        48.94684        0.9312752      -0.5820417
0.1795                 0.9305472      -0.6240553     6.815364e-05         50.1403     6.815617e-05        50.13961        0.9305471      -0.6240537
0.1954                 0.9298784      -0.6433088     7.245393e-05        50.31787     7.245648e-05        50.31689        0.9298783      -0.6433073
0.2113                 0.9295004        -0.65077     7.540735e-05        50.58471     7.540962e-05        50.58357        0.9295003      -0.6507689
0.2272                 0.9294334      -0.6631177     7.772357e-05        51.61435     7.772547e-05        51.61323        0.9294333      -0.6631171
0.2431                 0.9295036      -0.6915576     8.051713e-05         53.3754     8.051877e-05        53.37447        0.9295036      -0.6915574
0.259                  0.9294794      -0.7357631     8.451757e-05        55.25788     8.451922e-05        55.25716        0.9294793      -0.7357634
0.2749                  0.929219      -0.7858811     8.962732e-05        56.59693      8.96292e-05         56.5963        0.9292189      -0.7858815
0.2908                 0.9287415      -0.8297642     9.511007e-05        57.13579     9.511218e-05        57.13513        0.9287414      -0.8297648
0.3067                 0.9281944      -0.8605015     0.0001001394        57.07917     0.0001001416        57.07841        0.9281943       -0.860502
0.3226                 0.9277491      -0.8800777     0.0001042954        56.86387     0.0001042975        56.86302         0.927749      -0.8800781
0.3385                 0.9274906      -0.8972391     0.0001077664        56.87894     0.0001077682        56.87808        0.9274905      -0.8972392
0.3544                  0.927371      -0.9211833     0.0001111725         57.2603     0.0001111741        57.25952        0.9273709       -0.921183
0.3703                 0.9272552      -0.9555854     0.0001151255        57.84736      0.000115127         57.8467        0.9272551      -0.9555846
0.3862                 0.9270164      -0.9968821     0.0001198278        58.33108     0.0001198294        58.33051        0.9270163      -0.9968808
0.4021                 0.9266145       -1.037301     0.0001249831        58.48075     0.0001249848        58.48021        0.9266144       -1.037299
0.418                  0.9261126       -1.070131     0.0001300344        58.27742     0.0001300362        58.27685        0.9261126       -1.070129
0.4339                 0.9256282       -1.093856      0.000134534         57.8898     0.0001345358        57.88921        0.9256282       -1.093854
0.4498                 0.9252531       -1.112706     0.0001384115        57.54787     0.0001384131        57.54726         0.925253       -1.112706
0.4657                 0.9249957       -1.133433     0.0001419916        57.40081      0.000141993        57.40023        0.9249957       -1.133433
0.4816                 0.9247831       -1.160657     0.0001457558        57.43685     0.0001457572        57.43635         0.924783       -1.160657
0.4975                 0.9245157       -1.194037     0.0001500159         57.5104     0.0001500174        57.50997        0.9245157       -1.194038
0.5134                 0.9241347       -1.228939     0.0001547227        57.45343     0.0001547242        57.45303        0.9241346       -1.228941
0.5293                  0.923656       -1.259777     0.0001595256         57.1871     0.0001595273        57.18668         0.923656       -1.259778
0.5452                  0.923155       -1.283686     0.0001640191        56.76026     0.0001640207        56.75981        0.9231549       -1.283687
0.5611                 0.9227127         -1.3022     0.0001680044        56.30435     0.0001680059        56.30389        0.9227126       -1.302201
0.577                  0.9223625       -1.319943     0.0001716059         55.9443     0.0001716074        55.94384        0.9223625       -1.319943
0.5929                 0.9220716        -1.34133     0.0001751717        55.72181      0.000175173         55.7214        0.9220715        -1.34133
0.6088                 0.9217675       -1.367653     0.0001790302        55.57737     0.0001790315          55.577        0.9217674       -1.367652
0.6247                 0.9213896       -1.396464     0.0001832746        55.39921      0.000183276        55.39886        0.9213896       -1.396463
0.6406                 0.9209281       -1.423462     0.0001877166        55.10197      0.000187718        55.10162        0.9209281       -1.423462
0.6565                  0.920427       -1.445445     0.0001920261        54.67934     0.0001920275        54.67896         0.920427       -1.445445
0.6724                 0.9199521       -1.462355     0.0001959541        54.20043     0.0001959556        54.20005        0.9199521       -1.462355
0.6883                 0.9195457       -1.477137     0.0001994923        53.75935     0.0001994936        53.75897        0.9195456       -1.477138
0.7042                    0.9192        -1.49358     0.0002028663        53.41336     0.0002028675        53.41299        0.9191999       -1.493581
0.7201                 0.9188657       -1.513717     0.0002063745        53.14922     0.0002063757        53.14888        0.9188657       -1.513717
0.736                  0.9184882       -1.536581      0.000210185        52.89792     0.0002101861        52.89761        0.9184881       -1.536581
0.7519                  0.918044       -1.559053     0.0002142308        52.58513      0.000214232        52.58483         0.918044       -1.559053
0.7678                 0.9175553       -1.578073     0.0002182668        52.18066      0.000218268        52.18035        0.9175552       -1.578073
0.7837                  0.917072       -1.592685     0.0002220408        51.71459      0.000222042        51.71427        0.9170719       -1.592685
0.7996                 0.9166373       -1.604573     0.0002254614        51.25305     0.0002254625        51.25273        0.9166373       -1.604574
0.8155                 0.9162588       -1.616787     0.0002286523         50.8528     0.0002286533         50.8525        0.9162588       -1.616787
0.8314                 0.9159055       -1.631597     0.0002318601        50.52489     0.0002318611        50.52462        0.9159055       -1.631597
0.8473                 0.9155313       -1.649011     0.0002352831        50.23081     0.0002352841        50.23055        0.9155313       -1.649011
0.8632                 0.9151071       -1.666903     0.0002389403         49.9118     0.0002389413        49.91156         0.915107       -1.666903
0.8791                 0.9146394       -1.682576     0.0002426674        49.52957     0.0002426685        49.52932        0.9146394       -1.682576
0.895                  0.9141646       -1.694608     0.0002462355        49.09023     0.0002462366        49.08998        0.9141646       -1.694608
0.9109                 0.9137225       -1.703768     0.0002495071        48.63724     0.0002495082        48.63698        0.9137225       -1.703769
0.9268                 0.9133294       -1.712388     0.0002525259        48.22031     0.0002525269        48.22005        0.9133293       -1.712389
0.9427                 0.9129682       -1.722697     0.0002554801        47.86224      0.000255481        47.86199        0.9129682       -1.722698
0.9586                 0.9126021       -1.735316     0.0002585694        47.54547     0.0002585703        47.54523        0.9126021       -1.735317
0.9745                 0.9122006       -1.748921     0.0002618696        47.22654     0.0002618706        47.22631        0.9122005       -1.748921
0.9904                   0.91176       -1.761254     0.0002652871        46.86698      0.000265288        46.86675          0.91176       -1.761253
1.0063                  0.911305       -1.770704     0.0002686291        46.45883     0.0002686299        46.45859         0.911305       -1.770703
1.0222                 0.9108702       -1.777389     0.0002717385        46.02804     0.0002717393         46.0278        0.9108702       -1.777388
1.0381                 0.9104764       -1.783001     0.0002745995        45.61517     0.0002746003        45.61494        0.9104764       -1.783003
1.054                  0.9101168       -1.789583     0.0002773436        45.24748     0.0002773444        45.24727        0.9101168       -1.789583
1.0699                 0.9097633       -1.798112     0.0002801548        44.92144     0.0002801555        44.92123        0.9097633       -1.798111
1.0858                 0.9093867       -1.807889     0.0002831424        44.60686     0.0002831432        44.60667        0.9093867       -1.807889
1.1017                 0.9089768       -1.817107     0.0002862706        44.26895     0.0002862714        44.26875        0.9089767       -1.817106
1.1176                 0.9085486       -1.824137     0.0002893879        43.89204     0.0002893887        43.89184        0.9085486       -1.824137
1.1335                 0.9081311       -1.828653     0.0002923358        43.48913     0.0002923366        43.48893        0.9081311       -1.828652
1.1494                 0.9077467       -1.831798     0.0002950569         43.0915     0.0002950575         43.0913        0.9077467       -1.831797
1.1653                  0.907396       -1.835353     0.0002976315        42.72671     0.0002976321        42.72651        0.9073959       -1.835352
1.1812                 0.9070585       -1.840478     0.0003002183        42.40017     0.0003002189        42.39998        0.9070585       -1.840478
1.1971                  0.906708       -1.846952     0.0003029431        42.09265     0.0003029437        42.09246        0.9067079       -1.846953
1.213                  0.9063302       -1.853391     0.0003058145        41.77463     0.0003058152        41.77445        0.9063302       -1.853391
1.2289                 0.9059329       -1.858253     0.0003087228        41.42695     0.0003087235        41.42677        0.9059329       -1.858254
1.2448                  0.905539       -1.860917     0.0003115193        41.05325     0.0003115199        41.05307         0.905539       -1.860917
1.2607                 0.9051708       -1.862079     0.0003141203        40.67633     0.0003141208        40.67615        0.9051708       -1.862079
1.2766                  0.904834       -1.863228     0.0003165627        40.32173     0.0003165633        40.32155         0.904834       -1.863227
1.2925                  0.904515       -1.865585     0.0003189753        40.00025     0.0003189759        40.00007        0.9045149       -1.865585
1.3084                 0.9041907       -1.869282     0.0003214876        39.70127     0.0003214881         39.7011        0.9041907       -1.869283
1.3243                 0.9038452       -1.873316      0.000324141        39.40105     0.0003241415        39.40088        0.9038452       -1.873315
1.3402                 0.9034803       -1.876293      0.000326864        39.07956     0.0003268645         39.0794        0.9034802       -1.876293
1.3561                 0.9031135       -1.877417     0.0003295256          38.734      0.000329526        38.73383        0.9031135       -1.877417
1.372                  0.9027658       -1.877018     0.0003320274        38.37979     0.0003320278        38.37963        0.9027658       -1.877018
1.3879                 0.9024462       -1.876294     0.0003343712        38.03928     0.0003343716        38.03912        0.9024462       -1.876294
1.4038                 0.9021468       -1.876448      0.000336655         37.7261     0.0003366554        37.72595        0.9021468       -1.876448
1.4197                 0.9018482       -1.877861     0.0003390027        37.43623     0.0003390031        37.43609        0.9018482        -1.87786
1.4356                 0.9015339       -1.879859     0.0003414783        37.15154     0.0003414787        37.15137        0.9015339       -1.879859
1.4515                 0.9012014       -1.881234     0.0003440441        36.85277     0.0003440445        36.85263        0.9012014       -1.881234
1.4674                 0.9008633       -1.881099     0.0003465904        36.53292     0.0003465908        36.53276        0.9008633       -1.881099
1.4833                 0.9005385       -1.879499     0.0003490138        36.20128     0.0003490142        36.20115        0.9005385         -1.8795
1.4992                 0.9002381       -1.877355     0.0003512887        35.87651     0.0003512891        35.87638        0.9002381       -1.877355
1.5151                 0.8999586       -1.875792     0.0003534835        35.57325     0.0003534839        35.57311        0.8999586       -1.875792
1.531                  0.8996845       -1.875359     0.0003557106        35.29238     0.0003557109        35.29221        0.8996844        -1.87536
1.5469                 0.8993996       -1.875669     0.0003580476        35.02083     0.0003580479        35.02066        0.8993996       -1.875669
1.5628                 0.8990984       -1.875706     0.0003604855        34.74125     0.0003604859        34.74108        0.8990984       -1.875706
1.5787                 0.8987892       -1.874559     0.0003629376        34.44396     0.0003629379        34.44385        0.8987892        -1.87456
1.5946                 0.8984882       -1.872056     0.0003653021         34.1335     0.0003653024        34.13333        0.8984882       -1.872056
1.6105                 0.8982078       -1.868863     0.0003675338        33.82454      0.000367534        33.82443        0.8982078       -1.868862
1.6264                  0.897948       -1.865994     0.0003696736        33.53168     0.0003696738        33.53157        0.8979479       -1.865994
1.6423                 0.8976968       -1.864102     0.0003718188        33.25918      0.000371819        33.25904        0.8976968       -1.864102
1.6582                 0.8974392       -1.863032     0.0003740538        32.99845      0.000374054        32.99833        0.8974392       -1.863032
1.6741                 0.8971675       -1.861966     0.0003763924        32.73449     0.0003763926        32.73438        0.8971674       -1.861966
1.69                   0.8968863       -1.860017     0.0003787708        32.45645     0.0003787711        32.45633        0.8968863       -1.860018
1.7059                 0.8966093       -1.856852     0.0003810943        32.16489     0.0003810945        32.16477        0.8966093       -1.856852
1.7218                  0.896349        -1.85291      0.000383304        31.87095     0.0003833042        31.87082         0.896349       -1.852911
1.7377                 0.8961081       -1.849078     0.0003854173        31.58819     0.0003854175        31.58807        0.8961081       -1.849078
1.7536                 0.8958781       -1.846054     0.0003875141        31.32314     0.0003875142        31.32303        0.8958781       -1.846054
1.7695                 0.8956454       -1.843876     0.0003896795        31.07102     0.0003896796        31.07091        0.8956454       -1.843876
1.7854                  0.895401       -1.841913     0.0003919454         30.8194     0.0003919455        30.81929         0.895401       -1.841912
1.8013                 0.8951465       -1.839335     0.0003942695        30.55712     0.0003942696        30.55701        0.8951465       -1.839335
1.8172                 0.8948928       -1.835699     0.0003965674        30.28189     0.0003965676        30.28178        0.8948928       -1.835699
1.8331                 0.8946522        -1.83125     0.0003987726         30.0015     0.0003987727        30.00139        0.8946522        -1.83125
1.849                  0.8944293       -1.826732     0.0004008824        29.72806     0.0004008824        29.72795        0.8944293       -1.826732
1.8649                 0.8942188       -1.822853     0.0004029584         29.4694     0.0004029585        29.46929        0.8942187       -1.822853
1.8808                 0.8940085       -1.819798     0.0004050825         29.2238     0.0004050826        29.22371        0.8940085       -1.819797
1.8967                  0.893789       -1.817112     0.0004072994         28.9815     0.0004072995        28.98141         0.893789       -1.817112
1.9126                 0.8935594       -1.814047     0.0004095865        28.73171     0.0004095866        28.73162        0.8935594       -1.814046
1.9285                 0.8933281        -1.81009     0.0004118721        28.47008     0.0004118722        28.46999        0.8933281       -1.810089
1.9444                 0.8931064       -1.805321     0.0004140863         28.2015     0.0004140864        28.20141        0.8931064       -1.805321
1.9603                 0.8929006        -1.80034     0.0004162102        27.93629     0.0004162104         27.9362        0.8929006       -1.800341
1.9762                 0.8927076       -1.795836     0.0004182881        27.68289     0.0004182882        27.68279        0.8927076       -1.795837
1.9921                 0.8925174       -1.792101     0.0004203947        27.44199     0.0004203947         27.4419        0.8925174       -1.792101
2.008                  0.8923204       -1.788841     0.0004225832        27.20635     0.0004225833        27.20626        0.8923204       -1.788841
2.0239                 0.8921138       -1.785402     0.0004248485        26.96601     0.0004248486        26.96592        0.8921138       -1.785402
2.0398                 0.8919036       -1.781238     0.0004271325        26.71533     0.0004271324        26.71524        0.8919036       -1.781238
2.0557                 0.8916999       -1.776294     0.0004293659        26.45668     0.0004293659        26.45659        0.8916999       -1.776293
2.0716                   0.89151        -1.77103     0.0004315176        26.19851     0.0004315176        26.19842          0.89151        -1.77103
2.0875                 0.8913329       -1.766089     0.0004336148        25.94926     0.0004336148        25.94917        0.8913329       -1.766089
2.1034                 0.8911607       -1.761839     0.0004357235        25.71146     0.0004357234        25.71138        0.8911607       -1.761839
2.1193                 0.8909839        -1.75813     0.0004379012        25.48018     0.0004379012         25.4801        0.8909839        -1.75813
2.1352                 0.8907983       -1.754407     0.0004401574        25.24662     0.0004401574        25.24655        0.8907983       -1.754407
2.1511                 0.8906077       -1.750122     0.0004424483         25.0044     0.0004424483        25.00432        0.8906077       -1.750122
2.167                  0.8904211        -1.74511     0.0004447084        24.75382     0.0004447084        24.75375        0.8904211        -1.74511
2.1829                 0.8902459       -1.739702     0.0004468973        24.50147     0.0004468973        24.50139        0.8902459       -1.739701
2.1988                 0.8900833       -1.734477     0.0004490272        24.25537     0.0004490272        24.25529        0.8900833       -1.734477
2.2147                 0.8899269       -1.729853     0.0004511536        24.01935     0.0004511535        24.01928        0.8899269       -1.729852
2.2306                  0.889768       -1.725797     0.0004533351        23.79052      0.000453335        23.79045         0.889768       -1.725797
2.2465                 0.8896015       -1.721864     0.0004555931        23.56143     0.0004555931        23.56136        0.8896015       -1.721864
2.2624                 0.8894291        -1.71752     0.0004578978        23.32541     0.0004578976        23.32535        0.8894291       -1.717519
2.2783                 0.8892584       -1.712519     0.0004601894        23.08117     0.0004601894         23.0811        0.8892584       -1.712519
2.2942                 0.8890971       -1.707074     0.0004624219        22.83347     0.0004624219         22.8334        0.8890971       -1.707073
2.3101                 0.8889474       -1.701689     0.0004645943        22.58963     0.0004645943        22.58956        0.8889474       -1.701689
2.326                  0.8888051       -1.696805     0.0004667504        22.35434     0.0004667504        22.35427        0.8888051       -1.696805
2.3419                 0.8886621       -1.692491     0.0004689478        22.12642     0.0004689478        22.12635        0.8886621       -1.692491
2.3578                 0.8885127       -1.688405     0.0004712168        21.89985     0.0004712167        21.89979        0.8885127       -1.688405
2.3737                 0.8883571       -1.684047     0.0004735401        21.66808     0.0004735401        21.66802         0.888357       -1.684046
2.3896                 0.8882013       -1.679114     0.0004758666        21.42857     0.0004758664        21.42851        0.8882013       -1.679114
2.4055                 0.8880527       -1.673712     0.0004781465        21.18446     0.0004781464         21.1844        0.8880527       -1.673712
2.4214                 0.8879149       -1.668266      0.000480368        20.94214     0.0004803679        20.94208        0.8879149       -1.668265
2.4373                 0.8877849       -1.663219     0.0004825634        20.70674     0.0004825633        20.70668        0.8877849       -1.663218
2.4532                  0.887656        -1.65872     0.0004847863        20.47854     0.0004847862        20.47848         0.887656       -1.658719
2.4691                 0.8875219       -1.654525     0.0004870736        20.25292     0.0004870735        20.25287        0.8875219       -1.654525
2.485                  0.8873816       -1.650184     0.0004894199        20.02372     0.0004894199        20.02367        0.8873816       -1.650184
2.5009                 0.8872396       -1.645358     0.0004917826        19.78755     0.0004917825        19.78749        0.8872396       -1.645358
2.5168                  0.887103       -1.640058      0.000494112        19.54606     0.0004941119        19.54601         0.887103       -1.640058
2.5327                 0.8869758       -1.634628     0.0004963869        19.30464     0.0004963868        19.30459        0.8869758       -1.634628
2.5486                 0.8868569       -1.629496     0.0004986283        19.06854     0.0004986282        19.06848        0.8868569       -1.629496
2.5645                 0.8867403       -1.624874     0.0005008846        18.83916     0.0005008845        18.83911        0.8867403       -1.624874
2.5804                 0.8866199       -1.620609     0.0005031964        18.61325     0.0005031963         18.6132        0.8866199       -1.620609
2.5963                 0.8864935       -1.616307      0.000505569        18.38522     0.0005055688        18.38518        0.8864935       -1.616307
2.6122                 0.8863644       -1.611611     0.0005079688        18.15117     0.0005079687        18.15112        0.8863644       -1.611611
2.6281                 0.8862387       -1.606455     0.0005103481        17.91148     0.0005103481        17.91143        0.8862387       -1.606454
2.644                  0.8861213       -1.601101     0.0005126788        17.67046     0.0005126786        17.67041        0.8861213         -1.6011
2.6599                 0.8860121       -1.595949     0.0005149713        17.43322     0.0005149711        17.43317        0.8860121       -1.595949
2.6758                 0.8859064       -1.591255      0.000517267        17.20204     0.0005172669          17.202        0.8859064       -1.591255
2.6917                 0.8857981        -1.58695     0.0005196087        16.97488     0.0005196085        16.97484        0.8857981        -1.58695
2.7076                 0.8856844         -1.5827     0.0005220101         16.7469       0.00052201        16.74686        0.8856844         -1.5827
2.7235                 0.8855671       -1.578148     0.0005244473        16.51393     0.0005244472        16.51389        0.8855671       -1.578148
2.7394                 0.8854518       -1.573163     0.0005268761        16.27531      0.000526876        16.27527        0.8854518       -1.573162
2.7553                 0.8853433        -1.56793     0.0005292635        16.03431     0.0005292634        16.03427        0.8853433        -1.56793
2.7712                 0.8852428       -1.562812     0.0005316103        15.79566     0.0005316101        15.79562        0.8852428       -1.562812
2.7871                 0.8851465       -1.558091     0.0005339505        15.56226     0.0005339504        15.56222        0.8851465       -1.558091
2.803                  0.8850491        -1.55377     0.0005363265        15.33316     0.0005363264        15.33312        0.8850491        -1.55377
2.8189                 0.8849467       -1.549582      0.000538759        15.10433     0.0005387589         15.1043        0.8849467       -1.549581
2.8348                 0.8848404       -1.545178     0.0005412338        14.87158     0.0005412336        14.87154        0.8848403       -1.545178
2.8507                 0.8847346       -1.540381      0.000543711        14.63343     0.0005437108        14.63339        0.8847346       -1.540381
2.8666                 0.8846343       -1.535303      0.000546155        14.39213     0.0005461549        14.39209        0.8846343       -1.535303
2.8825                 0.8845415       -1.530261     0.0005485583        14.15191     0.0005485581        14.15188        0.8845415       -1.530261
2.8984                 0.8844537       -1.525549     0.0005509468        13.91605     0.0005509467        13.91601        0.8844537       -1.525549
2.9143                 0.8843657       -1.521234      0.000553361        13.68452     0.0005533608        13.68449        0.8843657       -1.521234
2.9302                 0.8842736       -1.517112     0.0005558269        13.45416     0.0005558268        13.45413        0.8842736       -1.517111
2.9461                 0.8841773       -1.512856     0.0005583389        13.22092     0.0005583386        13.22089        0.8841773       -1.512856
2.962                  0.8840804       -1.508256     0.0005608633        12.98272     0.0005608631        12.98269        0.8840804       -1.508256
2.9779                 0.8839878       -1.503355     0.0005633632        12.74087     0.0005633631        12.74084        0.8839878       -1.503355
2.9938                  0.883902       -1.498423     0.0005658242        12.49902      0.000565824        12.49899         0.883902       -1.498423
3.0097                 0.8838215       -1.493753     0.0005682639        12.26058     0.0005682637        12.26055        0.8838215       -1.493753
3.0256                 0.8837419       -1.489462     0.0005707195        12.02633     0.0005707194         12.0263        0.8837419       -1.489462
3.0415                  0.883659       -1.485407     0.0005732211        11.79393      0.000573221         11.7939         0.883659       -1.485407
3.0574                 0.8835719       -1.481296     0.0005757705        11.55963     0.0005757704         11.5596        0.8835719       -1.481296
3.0733                 0.8834833       -1.476893     0.0005783407        11.32095     0.0005783406        11.32092        0.8834833       -1.476893
3.0892                 0.8833977       -1.472186     0.0005808953        11.07835     0.0005808952        11.07832        0.8833977       -1.472186
3.1051                 0.8833182       -1.467388     0.0005834143        10.83486     0.0005834141        10.83483        0.8833182       -1.467388
3.121                  0.8832442       -1.462787     0.0005859077        10.59384     0.0005859075        10.59382        0.8832442       -1.462787
3.1369                 0.8831719       -1.458535      0.000588408        10.35671     0.0005884078        10.35668        0.8831719       -1.458535
3.1528                 0.8830973       -1.454551     0.0005909472        10.12189      0.000590947        10.12187        0.8830973       -1.454551
3.1687                 0.8830186       -1.450578     0.0005935343         9.88609     0.0005935341        9.886063        0.8830186       -1.450578
3.1846                 0.8829377       -1.446369      0.000596149        9.646562     0.0005961488        9.646535        0.8829377       -1.446369
3.2005                 0.8828587       -1.441862     0.0005987571        9.403064      0.000598757        9.403036        0.8828587       -1.441862
3.2164                  0.882785       -1.437219     0.0006013341         9.15794     0.0006013339        9.157912         0.882785       -1.437219
3.2323                 0.8827167       -1.432708     0.0006038827        8.914422     0.0006038825        8.914395        0.8827167       -1.432708
3.2482                  0.882651       -1.428511     0.0006064304        8.674344     0.0006064302         8.67432         0.882651       -1.428511