! TOUCHSTONE file generated by CST MICROWAVE STUDIO
! Date and time: Tue Apr 18 18:38:17 2023
! Project name: Untitled_0.cst
! Header version: 2018
! Port assignment regex: !\s*Touchstone port\s*([0-9]+)\s*=\s*(CST MWS port|CST DS port)\s*([0-9]+|Zmin|Zmax)\s*\(\"(.*)\"\)(\s*mode\s*([0-9]+))?.*
! Touchstone port assignment:
! Touchstone port 1 = CST MWS port 1 ("")
! Touchstone port 2 = CST MWS port 2 ("")
# GHz S MA R 50
2                   0.0144969719      119.946611      0.999893831     -148.932167      0.999894362     -148.932082      0.014496962      122.175118
2.0105              0.0141717371      119.151672      0.999899763     -149.711499      0.999873698      -149.71316     0.0141725045      121.452447
2.021               0.0138436778      118.354893      0.999904228     -150.491016      0.999854541     -150.494316     0.0138452158      120.731347
2.0315              0.0135128591      117.556072      0.999908626     -151.270712      0.999836843     -151.275549     0.0135151595      120.011899
2.042               0.0131793367      116.755058      0.999912956     -152.050583      0.999820558     -152.056856     0.0131823907      119.294262
2.0525              0.0128431666       115.95168      0.999917214     -152.830623      0.999805639     -152.838233     0.0128469648      118.578615
2.063               0.0125044051      115.145746      0.999921396     -153.610826      0.999792042      -153.61968     0.0125089378      117.865157
2.0735              0.0121631091      114.337044      0.999925501     -154.391188      0.999779721     -154.401192     0.0121683658      117.154113
2.084               0.0118193359      113.525333      0.999929523     -155.171703      0.999768631     -155.182768     0.0118253056      116.445736
2.0945               0.011473143      112.710342      0.999933462     -155.952367       0.99975873     -155.964405     0.0114798142      115.740312
2.105               0.0111245885      111.891763      0.999937312     -156.733174      0.999749974     -156.746102     0.0111319493      115.038168
2.1155               0.010773731      111.069249      0.999941073     -157.514119      0.999742321     -157.527855     0.0107817687      114.339674
2.126               0.0104206293      110.242399       0.99994474     -158.295199      0.999735729     -158.309662     0.0104293307      113.645258
2.1365              0.0100653426      109.410757      0.999948311     -159.076407      0.999730155     -159.091521     0.0100746944       112.95541
2.147              0.00970793092      108.573794      0.999951783     -159.857739       0.99972556     -159.873431    0.00971791894        112.2707
2.1575             0.00934845438      107.730899      0.999955153     -160.639192      0.999721903     -160.655388    0.00935906426       111.59179
2.168              0.00898697382      106.881358      0.999958419     -161.420759      0.999719146     -161.437391    0.00899819084      110.919457
2.1785             0.00862355065      106.024333      0.999961578     -162.202438      0.999717248     -162.219438    0.00863535981      110.254614
2.189              0.00825824693      105.158833      0.999964627     -162.984223      0.999716171     -163.001527     0.0082706331      109.598347
2.1995              0.0078911255       104.28368      0.999967564      -163.76611      0.999715878     -163.783656    0.00790407353      108.951954
2.21                0.0075222501      103.397457      0.999970386     -164.548095      0.999716332     -164.565823    0.00753574501      108.316997
2.2205             0.00715168557      102.498447      0.999973091     -165.330174      0.999717496     -165.348026    0.00716571275      107.695378
2.231              0.00677949806      101.584548      0.999975677     -166.112343      0.999719334     -166.130264    0.00679404358       107.08943
2.2415              0.0064057554       100.65316      0.999978141     -166.894598      0.999721811     -166.912534    0.00642080641      106.502048
2.252              0.00603052752      99.7010212       0.99998048     -167.676935      0.999724893     -167.694835    0.00604607276      105.936868
2.2625             0.00565388714      98.7239904      0.999982693      -168.45935      0.999728545     -168.477165    0.00566991761      105.398517
2.273               0.0052759106      97.7167207      0.999984777      -169.24184      0.999732734     -169.259522    0.00529242056      104.892976
2.2835             0.00489667931      96.6721885      0.999986731       -170.0244      0.999737427     -170.041906    0.00491366755      104.428108
2.294              0.00451628168      95.5809776      0.999988552     -170.807028      0.999742592     -170.824314    0.00453375345      104.014456
2.3045             0.00413481631      94.4301642      0.999990239     -171.589718      0.999748198     -171.606745    0.00415278607      103.666489
2.315              0.00375239704      93.2015162      0.999991788      -172.37247      0.999754214     -172.389197    0.00377089254        103.4046
2.3255             0.00336916147      91.8684584      0.999993199     -173.155277      0.999760609     -173.171669    0.00338823022      103.258467
2.336              0.00298528605      90.3906957       0.99999447     -173.938138      0.999767354      -173.95416     0.0030050057      103.272984
2.3465             0.00260101458      88.7040878      0.999995598      -174.72105       0.99977442     -174.736667    0.00262151069      103.519347
2.357              0.00221671627       86.700076      0.999996583     -175.504008      0.999781778      -175.51919    0.00223819454      104.117416
2.3675             0.00183301654      84.1796379      0.999997422      -176.28701      0.999789401     -176.301728    0.00185582608      105.285168
2.378              0.00145113318       80.736204      0.999998114     -177.070053      0.999797261     -177.084278    0.00147590344      107.462186
2.3885             0.00107391623      75.4010687      0.999998658     -177.853133      0.999805333     -177.866841    0.00110189016      111.672222
2.399             0.000710083758      65.2702181      0.999999051     -178.636249       0.99981359     -178.649414   0.000744005437      120.841558
2.4095            0.000400109324      38.6059867      0.999999294     -179.419396      0.999822007     -179.431996   0.000445049098      145.425788
2.42              0.000349593835     -24.7559731      0.999999384      179.797427      0.999830559      179.785413   0.000386202307     -159.628691
2.4305            0.000625856202     -60.1606059       0.99999932      179.014224      0.999839223      179.002816   0.000638741609     -125.208206
2.441             0.000984577102     -72.5983371      0.999999102      178.230997      0.999847975      178.220212   0.000987701666     -112.950691
2.4515               0.001362327     -78.7154467      0.999998728      177.447749      0.999856792      177.437604    0.00136109553     -107.651072
2.462              0.00174691603      -82.508332      0.999998198      176.664482      0.999865654      176.654992    0.00174343593     -104.991751
2.4725             0.00213468498     -85.2169958       0.99999751      175.881199      0.999874537      175.872377    0.00212996966     -103.576688
2.483              0.00252414762     -87.3372751      0.999996664      175.097903      0.999883422       175.08976    0.00251876682     -102.840198
2.4935             0.00291456236     -89.1040115      0.999995661      174.314595      0.999892288      174.307142    0.00290887515     -102.512954
2.504              0.00330549637     -90.6422935      0.999994498      173.531277      0.999901116      173.524525    0.00329974946      -102.45118
2.5145             0.00369666263     -92.0247141      0.999993176      172.747953      0.999909888      172.741909    0.00369103734     -102.571354
2.525              0.00408784969       -93.29624      0.999991696      171.964624      0.999918585      171.959295     0.0040824865     -102.821719
2.5355             0.00447888799     -94.4861884      0.999990056      171.181293       0.99992719      171.176684    0.00447390027     -103.168519
2.546               0.0048696323     -95.6144782      0.999988258      170.397961      0.999935686      170.394077    0.00486511452     -103.588815
2.5565             0.00525995205     -96.6951086      0.999986302      169.614631      0.999944057      169.611474    0.00525598477      -104.06647
2.567              0.00564972563     -97.7382006      0.999984188      168.831304      0.999952289      168.828877    0.00564637871     -104.589807
2.5775             0.00603883695     -98.7512476      0.999981917      168.047983      0.999960366      168.046286    0.00603617163     -105.150162
2.588               0.0064271733     -99.7399115      0.999979491      167.264668      0.999968274      167.263702    0.00642524356     -105.740968
2.5985             0.00681462395     -100.708546       0.99997691      166.481363         0.999976      166.481125    0.00681347744     -106.357153
2.609              0.00720104056     -101.661559      0.999973691      165.698069      0.999974175      165.698558    0.00720073193     -106.995743
2.6195             0.00758632452     -102.601126      0.999964911      164.914787      0.999971288      164.915999    0.00758689682     -107.653049
2.63               0.00797039109      -103.52873      0.999956001      164.131518      0.999968251      164.133451    0.00797187394     -108.325844
2.6405             0.00835313161     -104.446124      0.999946969      163.348266      0.999965068      163.350913    0.00835554993     -109.012044
2.651              0.00873443744     -105.354737      0.999937825      162.565031       0.99996174      162.568386    0.00873781152     -109.709922
2.6615             0.00911420004     -106.255736      0.999928577      161.781814       0.99995827      161.785871    0.00911854552     -110.418032
2.672              0.00949231103     -107.150086      0.999919236      160.998617      0.999954661      161.003368    0.00949763893     -111.135149
2.6825             0.00986866229     -108.038586      0.999909811      160.215441      0.999950916      160.220878    0.00987497901     -111.860222
2.693               0.0102431462     -108.921896      0.999900311      159.432288      0.999947039      159.438402     0.0102504535     -112.592348
2.7035              0.0106156558      -109.80057      0.999890745      158.649159      0.999943033      158.655939     0.0106239509     -113.330735
2.714               0.0109860851     -110.675067      0.999881123      157.866054      0.999938902      157.873491     0.0109953606     -114.074691
2.7245              0.0113543292     -111.545772      0.999871454      157.082976       0.99993465      157.091058     0.0113645731     -114.823601
2.735               0.0117202845     -112.413006      0.999861748      156.299925      0.999930281       156.30864     0.0117314806     -115.576918
2.7455              0.0120838491     -113.277038      0.999852014      155.516901        0.9999258      155.526238      0.012095977      -116.33415
2.756               0.0124449232      -114.13809      0.999842261      154.733907      0.999921211      154.743852      0.012457958     -117.094852
2.7665              0.0128034088     -114.996349      0.999832498      153.950943      0.999916519      153.961482     0.0128173219     -117.858621
2.777               0.0131592104     -115.851968      0.999822735      153.168009      0.999911729      153.179129     0.0131739693      -118.62509
2.7875               0.013512235     -116.705077       0.99981298      152.385107      0.999906846      152.396793     0.0135278039     -119.393923
2.798               0.0138623924     -117.555781      0.999803242      151.602237      0.999901876      151.614474      0.013878732     -120.164812
2.8085              0.0142095952     -118.404167      0.999793532        150.8194      0.999896822      150.832173     0.0142266634     -120.937472
2.819                0.014553759     -119.250308      0.999783856      150.036596      0.999891692      150.049889     0.0145715111     -121.711643
2.8295              0.0148948026     -120.094263      0.999774224      149.253827      0.999886489      149.267623     0.0149131914     -122.487085
2.84                0.0152326481     -120.936083      0.999764644      148.471092       0.99988122      148.485375     0.0152516245     -123.263575
2.8505              0.0155672208     -121.775808      0.999755124      147.688391       0.99987589      147.703145     0.0155867338     -124.040909
2.861               0.0158984491     -122.613473      0.999745673      146.905726      0.999870504      146.920933     0.0159184468       -124.8189
2.8715              0.0162262649     -123.449109      0.999736298      146.123097      0.999865068       146.13874     0.0162466942     -125.597375
2.882               0.0165506034     -124.282742      0.999727007      145.340504      0.999859586      145.356564     0.0165714106     -126.376177
2.8925              0.0168714028     -125.114397      0.999717807      144.557946      0.999854065      144.574407     0.0168925339      -127.15516
2.903               0.0171886045     -125.944096      0.999708706      143.775426      0.999848509      143.792268     0.0172100057     -127.934195
2.9135               0.017502153     -126.771861       0.99969971      142.992941      0.999842924      143.010147     0.0175237706     -128.713161
2.924               0.0178119956     -127.597714      0.999690827      142.210494      0.999837315      142.228045     0.0178337768     -129.491951
2.9345              0.0181180825     -128.421677      0.999682061      141.428083      0.999831687       141.44596     0.0181399753     -130.270469
2.945               0.0184203663     -129.243773      0.999673421      140.645709      0.999826044      140.663894     0.0184423201      -131.04863
2.9555              0.0187188023     -130.064026      0.999664911      139.863371      0.999820393      139.881845     0.0187407678     -131.826357
2.966                0.019013348     -130.882461      0.999656538       139.08107      0.999814736      139.099814     0.0190352776     -132.603583
2.9765              0.0193039632     -131.699105      0.999648306      138.298806      0.999809079      138.317801     0.0193258111     -133.380251
2.987               0.0195906096     -132.513987      0.999640221      137.516578      0.999803427      137.535805      0.019612332     -134.156311
2.9975              0.0198732507     -133.327136      0.999632288      136.734387      0.999797784      136.753826      0.019894806      -134.93172
3.008               0.0201518517     -134.138585      0.999624511      135.952232      0.999792154      135.971864     0.0201732007     -135.706444
3.0185              0.0204263794     -134.948365      0.999616895      135.170112      0.999786541       135.18992     0.0204474852     -136.480455
3.029               0.0206968018     -135.756513      0.999609444      134.388029       0.99978095      134.407992     0.0207176299     -137.253729
3.0395              0.0209630884     -136.563063      0.999602162       133.60598      0.999775385       133.62608     0.0209836068      -138.02625
3.05                0.0212252095     -137.368052      0.999595052      132.823967      0.999769849      132.844185     0.0212453888     -138.798007
3.0605              0.0214831365     -138.171519      0.999588118      132.041989      0.999764346      132.062306     0.0215029499     -139.568991
3.071               0.0217368417     -138.973502      0.999581364      131.260045      0.999758879      131.280443     0.0217562648     -140.339201
3.0815               0.021986298     -139.774041      0.999574791      130.478135      0.999753454      130.498595     0.0220053091     -141.108637
3.092               0.0222314791     -140.573177      0.999568403      129.696259      0.999748072      129.716762     0.0222500589     -141.877303
3.1025              0.0224723591      -141.37095      0.999562203      128.914416      0.999742738      128.934945      0.022490491     -142.645206
3.113               0.0227089129     -142.167401      0.999556193      128.132606      0.999737455      128.153142     0.0227265823     -143.412356
3.1235              0.0229411153     -142.962572      0.999550376      127.350828      0.999732226      127.371353     0.0229583104     -144.178764
3.134               0.0231689421     -143.756503      0.999544752      126.569082      0.999727055      126.589579     0.0231856531     -144.944445
3.1445              0.0233923689     -144.549235      0.999539325      125.787368      0.999721944      125.807819     0.0234085883     -145.709413
3.155               0.0236113717     -145.340808      0.999534095      125.005684      0.999716896      125.026072     0.0236270943     -146.473685
3.1655              0.0238259271     -146.131265      0.999529065      124.224031      0.999711915      124.244339     0.0238411495      -147.23728
3.176               0.0240360114     -146.920643      0.999524235      123.442408      0.999707004      123.462619     0.0240507322     -148.000216
3.1865              0.0242416014     -147.708982      0.999519608      122.660813      0.999702165      122.680911     0.0242558213     -148.762512
3.197               0.0244426741     -148.496321      0.999515184      121.879248      0.999697402      121.899216     0.0244563953     -149.524189
3.2075              0.0246392065     -149.282698      0.999510963       121.09771      0.999692716      121.117533     0.0246524331     -150.285266
3.218               0.0248311762      -150.06815      0.999506948        120.3162      0.999688112      120.335862     0.0248439137     -151.045764
3.2285              0.0250185604     -150.852713      0.999503138      119.534717      0.999683591      119.554202     0.0250308161     -151.805703
3.239                0.025201337     -151.636421      0.999499534       118.75326      0.999679156      118.772553     0.0252131194     -152.565105
3.2495              0.0253794839     -152.419311      0.999496137      117.971828      0.999674809      117.990915     0.0253908029     -153.323988
3.26                0.0255529792     -153.201414      0.999492946      117.190422      0.999670554      117.209288     0.0255638459     -154.082374
3.2705              0.0257218013     -153.982763      0.999489963      116.409039      0.999666392      116.427671     0.0257322281     -154.840281
3.281               0.0258859289      -154.76339      0.999487186       115.62768      0.999662327      115.646063     0.0258959291     -155.597728
3.2915              0.0260453409     -155.543326      0.999484616      114.846344      0.999658359      114.864466      0.026054929     -156.354735
3.302               0.0262000165     -156.322598      0.999482253      114.065031      0.999654492      114.082877     0.0262092079      -157.11132
3.3125              0.0263499353     -157.101237      0.999480096      113.283738      0.999650728      113.301297     0.0263587461       -157.8675
3.323               0.0264950772     -157.879269      0.999478146      112.502467      0.999647069      112.519726     0.0265035245     -158.623291
3.3335              0.0266354225      -158.65672      0.999476401      111.721215      0.999643517      111.738162      0.026643524     -159.378712
3.344               0.0267709518     -159.433616      0.999474861      110.939983      0.999640074      110.956607     0.0267787259     -160.133777
3.3545              0.0269016463     -160.209981      0.999473525      110.158769      0.999636742      110.175059      0.026909112     -160.888502
3.365               0.0270274874     -160.985839      0.999472393      109.377574      0.999633523      109.393518     0.0270346643       -161.6429
3.3755              0.0271484572     -161.761212      0.999471464      108.596395      0.999630419      108.611984     0.0271553654     -162.396986
3.386               0.0272645382     -162.536121      0.999470735      107.815232      0.999627432      107.830456     0.0272711982     -163.150774
3.3965              0.0273757133     -163.310588      0.999470208      107.034086      0.999624563      107.048934     0.0273821461     -163.904275
3.407               0.0274819663     -164.084632      0.999469879      106.252954      0.999621814      106.267418     0.0274881931     -164.657501
3.4175              0.0275832811     -164.858272      0.999469749      105.471836      0.999619187      105.485908     0.0275893235     -165.410464
3.428               0.0276796424     -165.631526      0.999469815      104.690732      0.999616683      104.704402     0.0276855223     -166.163173
3.4385              0.0277710357     -166.404412      0.999470076       103.90964      0.999614304      103.922902     0.0277767751     -166.915641
3.449               0.0278574467     -167.176946      0.999470531       103.12856      0.999612051      103.141405     0.0278630681     -167.667874
3.4595              0.0279388622     -167.949143      0.999471178      102.347491      0.999609925      102.359913     0.0279443878     -168.419883
3.47                0.0280152693      -168.72102      0.999472015      101.566432      0.999607928      101.578424     0.0280207219     -169.171675
3.4805              0.0280866559      -169.49259       0.99947304      100.785382      0.999606061      100.796938     0.0280920581     -169.923259
3.491               0.0281530107     -170.263867      0.999474252      100.004342      0.999604324      100.015456     0.0281583854      -170.67464
3.5015              0.0282143231     -171.034864      0.999475648      99.2233091      0.999602719      99.2339757      0.028219693     -171.425827
3.512                0.028270583     -171.805594      0.999477227      98.4422837      0.999601247       98.452498      0.028275971     -172.176823
3.5225              0.0283217814     -172.576069      0.999478986      97.6612647      0.999599909      97.6710222     0.0283272103     -172.927637
3.533               0.0283679098       -173.3463      0.999480923      96.8802514      0.999598705       96.889548     0.0283734025     -173.678271
3.5435              0.0284089606     -174.116299      0.999483036       96.099243      0.999597636       96.108075     0.0284145399     -174.428731
3.554               0.0284449269     -174.886074      0.999485322      95.3182387      0.999596703      95.3266029     0.0284506155     -175.179021
3.5645              0.0284758026     -175.655637      0.999487778      94.5372379      0.999595906      94.5451314     0.0284816232     -175.929145
3.575               0.0285015826     -176.424997      0.999490404      93.7562398      0.999595246      93.7636602     0.0285075577     -176.679106
3.5855              0.0285222623     -177.194162      0.999493194      92.9752435      0.999594723      92.9821889     0.0285284144     -177.428906
3.596               0.0285378382     -177.963141      0.999496148      92.1942485      0.999594336      92.2007171     0.0285441897     -178.178548
3.6065              0.0285483076     -178.731943      0.999499263       91.413254      0.999594087      91.4192446     0.0285548807     -178.928035
3.617               0.0285536685     -179.500575      0.999502534      90.6322591      0.999593976      90.6377711     0.0285604852     -179.677367
3.6275              0.0285539199      179.730955       0.99950596      89.8512633      0.999594002      89.8562962     0.0285610021      179.573453
3.638               0.0285490616       178.96264      0.999509538      89.0702658      0.999594165      89.0748196      0.028556431      178.824426
3.6485              0.0285390943      178.194474      0.999513265       88.289266      0.999594466       88.293341     0.0285467725      178.075549
3.659               0.0285240196       177.42645      0.999517137       87.508263      0.999594903      87.5118601     0.0285320278      177.326823
3.6695              0.0285038399      176.658561      0.999521151      86.7272562      0.999595477      86.7303766     0.0285121992      176.578248
3.68                0.0284785585      175.890802      0.999525305       85.946245      0.999596187      85.9488901     0.0284872898      175.829824
3.6905              0.0284481796      175.123167      0.999529594      85.1652287      0.999597033      85.1674005     0.0284573037      175.081551
3.701               0.0284127084       174.35565      0.999534016      84.3842065      0.999598013      84.3859074     0.0284222456      174.333431
3.7115              0.0283721509      173.588246      0.999538568       83.603178      0.999599128      83.6044104     0.0283821214      173.585465
3.722                0.028326514       172.82095      0.999543245      82.8221423      0.999600375      82.8229094     0.0283369377      172.837653
3.7325              0.0282758055      172.053757      0.999548044      82.0410989      0.999601756       82.041404     0.0282867021      172.089998
3.743               0.0282200341      171.286663      0.999552963      81.2600472      0.999603267      81.2598941     0.0282314229      171.342501
3.7535              0.0281591617      170.519678      0.999557997      80.4789865      0.999601316      80.4783792     0.0281710632       170.59518
3.764               0.0280932126      169.752797      0.999563144      79.6979162      0.999596923      79.6968591     0.0281056465      169.848038
3.7745              0.0280222336      168.986005      0.999568399      78.9168358      0.999592722      78.9153336     0.0280352184      169.101066
3.785                0.027946237      168.219298      0.999573758      78.1357446      0.999588714      78.1338024     0.0279597909      168.354266
3.7955              0.0278652362      167.452671      0.999579217      77.3546422      0.999584902      77.3522653      0.027879377      167.607642
3.806               0.0277792455      166.686119      0.999584774      76.5735279       0.99958129       76.570722     0.0277939908      166.861196
3.8165              0.0276882801      165.919639      0.999590423      75.7924013       0.99957788      75.7891724     0.0277036469      166.114932
3.827                0.027592356      165.153226      0.999596162      75.0112617      0.999574673       75.007616     0.0276083613      165.368854
3.8375              0.0274914901      164.386876      0.999601986      74.2301087      0.999571672      74.2260529     0.0275081503      164.622965
3.848               0.0273857003      163.620584      0.999607892      73.4489417      0.999568879      73.4444826     0.0274030316       163.87727
3.8585              0.0272750054      162.854347      0.999613876      72.6677604      0.999566295       72.662905     0.0272930234      163.131771
3.869               0.0271594249      162.088159      0.999619933      71.8865641      0.999563922      71.8813199     0.0271781451      162.386474
3.8795              0.0270389795      161.322017       0.99962606      71.1053525       0.99956176      71.0997271     0.0270584168      161.641383
3.89                0.0269136904      160.555915      0.999632253      70.3241251      0.999559813      70.3181264     0.0269338594      160.896503
3.9005                0.02678358      159.789849      0.999638507      69.5428815      0.999558079      69.5365175     0.0268044948      160.151838
3.911               0.0266486638      159.023821      0.999644212      68.7616212       0.99955656      68.7549004     0.0266703384        159.4074
3.9215              0.0265089454      158.257844      0.999647727      67.9803438      0.999555258      67.9732748     0.0265313939      158.663213
3.932               0.0263644787       157.49189      0.999651342       67.199049      0.999554171      67.1916406      0.026387714      157.919258
3.9425              0.0262152894      156.725953      0.999655054      66.4177363      0.999553301      66.4099976     0.0262393238      157.175541
3.953               0.0260614041      155.960027      0.999658861      65.6364055      0.999552646      65.6283456     0.0260862496      156.432068
3.9635              0.0259028503      155.194106       0.99966276      64.8550561      0.999552208      64.8466844     0.0259285182      155.688844
3.974               0.0257396561      154.428184      0.999666748      64.0736879      0.999551986      64.0650141     0.0257661573      154.945875
3.9845              0.0255718506      153.662255      0.999670823      63.2923005       0.99955198      63.2833343     0.0255991955      154.203167
3.995               0.0253994637       152.89631      0.999674981      62.5108937      0.999552188       62.501645     0.0254276621      153.460726
4.0055              0.0252225259      152.130343      0.999679221       61.729467      0.999552611      61.7199461     0.0252515872      152.718558
4.016               0.0250410688      151.364346       0.99968354      60.9480204      0.999553247      60.9382373     0.0250710016      151.976671
4.0265              0.0248551246      150.598309      0.999687933      60.1665535      0.999554095      60.1565187      0.024885937      151.235069
4.037               0.0246647261      149.832224        0.9996924       59.385066      0.999555153      59.3747901     0.0246964258       150.49376
4.0475              0.0244699072      149.066081      0.999696935      58.6035579      0.999556421      58.5930515     0.0245025009      149.752751
4.058               0.0242707023      148.299869      0.999701537      57.8220288      0.999557898      57.8113026     0.0243041963      149.012049
4.0685              0.0240671465      147.533579      0.999706203      57.0404785       0.99955958      57.0295435     0.0241015464      148.271659
4.079               0.0238592757      146.767196      0.999710928      56.2589069      0.999561466       56.247774     0.0238945864      147.531591