! TOUCHSTONE file generated by CST MICROWAVE STUDIO
! Date and time: Fri Apr 21 23:08:54 2023
! Project name: airline_sim.cst
! Header version: 2018
! Port assignment regex: !\s*Touchstone port\s*([0-9]+)\s*=\s*(CST MWS port|CST DS port)\s*([0-9]+|Zmin|Zmax)\s*\(\"(.*)\"\)(\s*mode\s*([0-9]+))?.*
! Touchstone port assignment:
! Touchstone port 1 = CST MWS port 1 ("")
! Touchstone port 2 = CST MWS port 2 ("")
# GHz S MA R 50
2.5                0.00675835626     -108.090452      0.999977168     -15.0155081      0.999977168     -15.0154994    0.00675836239     -101.936594
2.51               0.00678467799     -108.137722       0.99997699     -15.0755598       0.99997699     -15.0755512    0.00678468396     -102.009478
2.52               0.00681099268     -108.185091      0.999976811     -15.1356117      0.999976811     -15.1356031    0.00681099849     -102.082264
2.53                0.0068373003     -108.232557      0.999976631     -15.1956636      0.999976631     -15.1956552    0.00683730595     -102.154951
2.54               0.00686360081      -108.28012      0.999976451     -15.2557157      0.999976451     -15.2557073     0.0068636063     -102.227542
2.55               0.00688989417     -108.327778       0.99997627     -15.3157679       0.99997627     -15.3157596    0.00688989952     -102.300037
2.56               0.00691618036     -108.375531      0.999976089     -15.3758202      0.999976089      -15.375812    0.00691618556     -102.372438
2.57               0.00694245934     -108.423376      0.999975906     -15.4358726      0.999975906     -15.4358645    0.00694246439     -102.444745
2.58               0.00696873108     -108.471314      0.999975724     -15.4959252      0.999975724     -15.4959171    0.00696873599      -102.51696
2.59               0.00699499555     -108.519342       0.99997554     -15.5559778       0.99997554     -15.5559699    0.00699500031     -102.589083
2.6                 0.0070212527      -108.56746      0.999975356     -15.6160306      0.999975356     -15.6160227    0.00702125733     -102.661117
2.61               0.00704750252     -108.615668      0.999975171     -15.6760834      0.999975171     -15.6760757    0.00704750701     -102.733061
2.62               0.00707374497     -108.663963      0.999974986     -15.7361364      0.999974986     -15.7361287    0.00707374932     -102.804917
2.63               0.00709998001     -108.712345        0.9999748     -15.7961895        0.9999748     -15.7961819    0.00709998423     -102.876685
2.64               0.00712620761     -108.760813      0.999974613     -15.8562426      0.999974613     -15.8562351     0.0071262117     -102.948368
2.65               0.00715242773     -108.809366      0.999974426     -15.9162959      0.999974426     -15.9162885     0.0071524317     -103.019965
2.66               0.00717864036     -108.858003      0.999974238     -15.9763493      0.999974238      -15.976342     0.0071786442     -103.091478
2.67               0.00720484545     -108.906723       0.99997405     -16.0364028       0.99997405     -16.0363955    0.00720484917     -103.162908
2.68               0.00723104297     -108.955525      0.999973861     -16.0964564      0.999973861     -16.0964492    0.00723104657     -103.234255
2.69               0.00725723289     -109.004408      0.999973671     -16.1565101      0.999973671      -16.156503    0.00725723636     -103.305521
2.7                0.00728341517     -109.053372       0.99997348     -16.2165639       0.99997348     -16.2165568    0.00728341853     -103.376706
2.71               0.00730958979     -109.102415      0.999973289     -16.2766177      0.999973289     -16.2766108    0.00730959304     -103.447812
2.72               0.00733575671     -109.151536      0.999973098     -16.3366717      0.999973098     -16.3366648    0.00733575985     -103.518838
2.73                0.0073619159     -109.200736      0.999972905     -16.3967258      0.999972905      -16.396719    0.00736191892     -103.589787
2.74               0.00738806733     -109.250012      0.999972713     -16.4567799      0.999972713     -16.4567732    0.00738807024     -103.660659
2.75               0.00741421096     -109.299364      0.999972519     -16.5168342      0.999972519     -16.5168275    0.00741421377     -103.731454
2.76               0.00744034677     -109.348791      0.999972325     -16.5768885      0.999972325      -16.576882    0.00744034947     -103.802174
2.77               0.00746647472     -109.398292       0.99997213      -16.636943       0.99997213     -16.6369365    0.00746647731      -103.87282
2.78               0.00749259477     -109.447868      0.999971935     -16.6969975      0.999971935     -16.6969911    0.00749259727     -103.943391
2.79               0.00751870691     -109.497516      0.999971739     -16.7570521      0.999971739     -16.7570457     0.0075187093      -104.01389
2.8                0.00754481109     -109.547236      0.999971542     -16.8171068      0.999971542     -16.8171005    0.00754481339     -104.084316
2.81               0.00757090728     -109.597027      0.999971345     -16.8771616      0.999971345     -16.8771554    0.00757090948     -104.154671
2.82               0.00759699546     -109.646888      0.999971147     -16.9372164      0.999971147     -16.9372103    0.00759699756     -104.224955
2.83               0.00762307558      -109.69682      0.999970948     -16.9972714      0.999970948     -16.9972653    0.00762307759     -104.295169
2.84               0.00764914762      -109.74682      0.999970749     -17.0573264      0.999970749     -17.0573204    0.00764914955     -104.365314
2.85               0.00767521155     -109.796889      0.999970549     -17.1173815      0.999970549     -17.1173756    0.00767521339      -104.43539
2.86               0.00770126734     -109.847025      0.999970349     -17.1774367      0.999970349     -17.1774309    0.00770126909     -104.505399
2.87               0.00772731495     -109.897228      0.999970148      -17.237492      0.999970148     -17.2374862    0.00772731661      -104.57534
2.88               0.00775335435     -109.947498      0.999969946     -17.2975473      0.999969946     -17.2975416    0.00775335593     -104.645215
2.89               0.00777938551     -109.997832      0.999969744     -17.3576027      0.999969744     -17.3575971    0.00777938701     -104.715025
2.9                0.00780540841     -110.048232      0.999969541     -17.4176582      0.999969541     -17.4176527    0.00780540982     -104.784769
2.91                 0.007831423     -110.098696      0.999969338     -17.4777138      0.999969338     -17.4777083    0.00783142433     -104.854449
2.92               0.00785742925     -110.149223      0.999969134     -17.5377694      0.999969134      -17.537764     0.0078574305     -104.924065
2.93               0.00788342715     -110.199813      0.999968929     -17.5978251      0.999968929     -17.5978198    0.00788342832     -104.993619
2.94               0.00790941664     -110.250465      0.999968724     -17.6578809      0.999968724     -17.6578756    0.00790941774     -105.063109
2.95               0.00793539771     -110.301179      0.999968518     -17.7179368      0.999968518     -17.7179315    0.00793539873     -105.132539
2.96               0.00796137032     -110.351953      0.999968312     -17.7779927      0.999968312     -17.7779875    0.00796137127     -105.201906
2.97               0.00798733444     -110.402788      0.999968104     -17.8380487      0.999968104     -17.8380436    0.00798733532     -105.271214
2.98               0.00801329004     -110.453683      0.999967897     -17.8981047      0.999967897     -17.8980997    0.00801329085     -105.340461
2.99               0.00803923709     -110.504637      0.999967688     -17.9581608      0.999967688     -17.9581559    0.00803923783      -105.40965
3                  0.00806517556     -110.555649       0.99996748      -18.018217       0.99996748     -18.0182121    0.00806517623     -105.478779
3.01               0.00809110541      -110.60672       0.99996727     -18.0782733       0.99996727     -18.0782684    0.00809110601      -105.54785
3.02               0.00811702662     -110.657848       0.99996706     -18.1383296       0.99996706     -18.1383248    0.00811702716     -105.616864
3.03               0.00814293916     -110.709032      0.999966849     -18.1983859      0.999966849     -18.1983812    0.00814293963     -105.685821
3.04               0.00816884299     -110.760273      0.999966638     -18.2584424      0.999966638     -18.2584377    0.00816884339     -105.754721
3.05               0.00819473808     -110.811569      0.999966426     -18.3184988      0.999966426     -18.3184943    0.00819473842     -105.823565
3.06                0.0082206244     -110.862921      0.999966213     -18.3785554      0.999966213     -18.3785509    0.00822062468     -105.892354
3.07               0.00824650192     -110.914327         0.999966      -18.438612         0.999966     -18.4386075    0.00824650215     -105.961088
3.08               0.00827237062     -110.965787      0.999965787     -18.4986687      0.999965787     -18.4986643    0.00827237078     -106.029768
3.09               0.00829823045     -111.017301      0.999965572     -18.5587254      0.999965572      -18.558721    0.00829823056     -106.098394
3.1                 0.0083240814     -111.068868      0.999965357     -18.6187821      0.999965357     -18.6187779    0.00832408145     -106.166967
3.11               0.00834992342     -111.120488      0.999965142      -18.678839      0.999965142     -18.6788347    0.00834992342     -106.235488
3.12               0.00837575649     -111.172159      0.999964926     -18.7388958      0.999964926     -18.7388917    0.00837575643     -106.303956
3.13               0.00840158058     -111.223882      0.999964709     -18.7989527      0.999964709     -18.7989487    0.00840158047     -106.372372
3.14               0.00842739565     -111.275656      0.999964492     -18.8590097      0.999964492     -18.8590057    0.00842739549     -106.440737
3.15               0.00845320169     -111.327481      0.999964274     -18.9190667      0.999964274     -18.9190628    0.00845320147     -106.509051
3.16               0.00847899865     -111.379355      0.999964056     -18.9791238      0.999964056     -18.9791199    0.00847899838     -106.577315
3.17                0.0085047865      -111.43128      0.999963837     -19.0391809      0.999963837     -19.0391771    0.00850478619      -106.64553
3.18               0.00853056522     -111.483253      0.999963617     -19.0992381      0.999963617     -19.0992343    0.00853056486     -106.713695
3.19               0.00855633477     -111.535275      0.999963397     -19.1592953      0.999963397     -19.1592916    0.00855633436     -106.781811
3.2                0.00858209513     -111.587345      0.999963176     -19.2193526      0.999963176     -19.2193489    0.00858209468     -106.849879
3.21               0.00860784627     -111.639463      0.999962955     -19.2794099      0.999962955     -19.2794062    0.00860784576     -106.917899
3.22               0.00863358814     -111.691629      0.999962733     -19.3394672      0.999962733     -19.3394636     0.0086335876     -106.985871
3.23               0.00865932073     -111.743841       0.99996251     -19.3995246       0.99996251     -19.3995211    0.00865932015     -107.053796
3.24               0.00868504401       -111.7961      0.999962287      -19.459582      0.999962287     -19.4595785    0.00868504338     -107.121675
3.25               0.00871075794     -111.848404      0.999962063     -19.5196395      0.999962063     -19.5196361    0.00871075726     -107.189507
3.26               0.00873646249     -111.900755      0.999961839      -19.579697      0.999961839     -19.5796936    0.00873646177     -107.257294
3.27               0.00876215763      -111.95315      0.999961614     -19.6397545      0.999961614     -19.6397512    0.00876215688     -107.325035
3.28               0.00878784334      -112.00559      0.999961389     -19.6998121      0.999961389     -19.6998088    0.00878784255     -107.392732
3.29               0.00881351958     -112.058075      0.999961163     -19.7598697      0.999961163     -19.7598665    0.00881351875     -107.460384
3.3                0.00883918633     -112.110603      0.999960936     -19.8199274      0.999960936     -19.8199242    0.00883918546     -107.527991
3.31               0.00886484354     -112.163175      0.999960709      -19.879985      0.999960709     -19.8799819    0.00886484264     -107.595555
3.32                0.0088904912     -112.215791      0.999960481     -19.9400428      0.999960481     -19.9400397    0.00889049026     -107.663076
3.33               0.00891612928     -112.268449      0.999960253     -20.0001005      0.999960253     -20.0000975     0.0089161283     -107.730554
3.34               0.00894175773     -112.321149      0.999960024     -20.0601583      0.999960024     -20.0601553    0.00894175672     -107.797989
3.35               0.00896737654     -112.373892      0.999959795     -20.1202161      0.999959795     -20.1202132     0.0089673755     -107.865382
3.36               0.00899298568     -112.426676      0.999959565      -20.180274      0.999959565     -20.1802711     0.0089929846     -107.932733
3.37                0.0090185851     -112.479501      0.999959334     -20.2403318      0.999959334      -20.240329    0.00901858399     -108.000043
3.38               0.00904417479     -112.532367      0.999959103     -20.3003897      0.999959103      -20.300387    0.00904417365     -108.067312
3.39               0.00906975472     -112.585274      0.999958871     -20.3604477      0.999958871      -20.360445    0.00906975355      -108.13454
3.4                0.00909532485     -112.638221      0.999958639     -20.4205056      0.999958639      -20.420503    0.00909532364     -108.201728
3.41               0.00912088515     -112.691207      0.999958406     -20.4805636      0.999958406      -20.480561    0.00912088392     -108.268876
3.42                0.0091464356     -112.744234      0.999958173     -20.5406216      0.999958173      -20.540619    0.00914643434     -108.335984
3.43               0.00917197616     -112.797299      0.999957939     -20.6006796      0.999957939     -20.6006771    0.00917197487     -108.403052
3.44               0.00919750681     -112.850403      0.999957704     -20.6607377      0.999957704     -20.6607352     0.0091975055     -108.470082
3.45               0.00922302752     -112.903546      0.999957469     -20.7207958      0.999957469     -20.7207933    0.00922302618     -108.537074
3.46               0.00924853825     -112.956726      0.999957233     -20.7808539      0.999957233     -20.7808515    0.00924853688     -108.604027
3.47               0.00927403898     -113.009945      0.999956997      -20.840912      0.999956997     -20.8409097    0.00927403758     -108.670942
3.48               0.00929952968     -113.063201       0.99995676     -20.9009701       0.99995676     -20.9009678    0.00929952825     -108.737819
3.49               0.00932501031     -113.116494      0.999956523     -20.9610283      0.999956523      -20.961026    0.00932500886     -108.804659
3.5                0.00935048085     -113.169824      0.999956285     -21.0210865      0.999956285     -21.0210843    0.00935047938     -108.871462
3.51               0.00937594127      -113.22319      0.999956047     -21.0811447      0.999956047     -21.0811425    0.00937593978     -108.938229
3.52               0.00940139154     -113.276593      0.999955808     -21.1412029      0.999955808     -21.1412008    0.00940139003     -109.004959
3.53               0.00942683163     -113.330031      0.999955568     -21.2012611      0.999955568      -21.201259     0.0094268301     -109.071653
3.54               0.00945226151     -113.383505      0.999955328     -21.2613193      0.999955328     -21.2613173    0.00945225996     -109.138311
3.55               0.00947768116     -113.437015      0.999955088     -21.3213776      0.999955088     -21.3213756    0.00947767958     -109.204934
3.56               0.00950309053     -113.490559      0.999954846     -21.3814359      0.999954846      -21.381434    0.00950308893     -109.271522
3.57               0.00952848961     -113.544138      0.999954605     -21.4414942      0.999954605     -21.4414923    0.00952848799     -109.338075
3.58               0.00955387836     -113.597751      0.999954362     -21.5015525      0.999954362     -21.5015506    0.00955387672     -109.404593
3.59               0.00957925675     -113.651399       0.99995412     -21.5616108       0.99995412      -21.561609    0.00957925509     -109.471077
3.6                0.00960462476      -113.70508      0.999953876     -21.6216691      0.999953876     -21.6216673    0.00960462308     -109.537527
3.61               0.00962998235     -113.758795      0.999953632     -21.6817274      0.999953632     -21.6817257    0.00962998066     -109.603944
3.62                0.0096553295     -113.812543      0.999953388     -21.7417858      0.999953388     -21.7417841    0.00965532779     -109.670327
3.63               0.00968066618     -113.866324      0.999953143     -21.8018441      0.999953143     -21.8018425    0.00968066446     -109.736676
3.64               0.00970599236     -113.920138      0.999952897     -21.8619025      0.999952897     -21.8619009    0.00970599062     -109.802993
3.65                 0.009731308     -113.973984      0.999952651     -21.9219608      0.999952651     -21.9219593    0.00973130624     -109.869278
3.66               0.00975661309     -114.027863      0.999952405     -21.9820192      0.999952405     -21.9820177    0.00975661131      -109.93553
3.67               0.00978190758     -114.081773      0.999952157     -22.0420776      0.999952157     -22.0420761     0.0097819058      -110.00175
3.68               0.00980719146     -114.135715       0.99995191      -22.102136       0.99995191     -22.1021345    0.00980718966     -110.067938
3.69               0.00983246469     -114.189689      0.999951662     -22.1621944      0.999951662      -22.162193    0.00983246287     -110.134094
3.7                0.00985772724     -114.243693      0.999951413     -22.2222528      0.999951413     -22.2222514    0.00985772542      -110.20022
3.71               0.00988297909     -114.297729      0.999951164     -22.2823112      0.999951164     -22.2823098    0.00988297725     -110.266314
3.72                0.0099082202     -114.351795      0.999950914     -22.3423696      0.999950914     -22.3423683    0.00990821835     -110.332377
3.73               0.00993345055     -114.405891      0.999950663      -22.402428      0.999950663     -22.4024267    0.00993344869      -110.39841
3.74               0.00995867011     -114.460018      0.999950412     -22.4624863      0.999950412     -22.4624851    0.00995866824     -110.464413
3.75               0.00998387885     -114.514175      0.999950161     -22.5225447      0.999950161     -22.5225436    0.00998387697     -110.530385
3.76                0.0100090767     -114.568361      0.999949909     -22.5826031      0.999949909      -22.582602     0.0100090748     -110.596328
3.77                0.0100342637     -114.622577      0.999949657     -22.6426615      0.999949657     -22.6426604     0.0100342618     -110.662241
3.78                0.0100594399     -114.676821      0.999949404     -22.7027199      0.999949404     -22.7027189     0.0100594379     -110.728125
3.79                 0.010084605     -114.731095       0.99994915     -22.7627783       0.99994915     -22.7627773     0.0100846031     -110.793979
3.8                 0.0101097592     -114.785398      0.999948896     -22.8228367      0.999948896     -22.8228357     0.0101097573     -110.859805
3.81                0.0101349024     -114.839729      0.999948642     -22.8828951      0.999948642     -22.8828941     0.0101349005     -110.925602
3.82                0.0101600346     -114.894088      0.999948387     -22.9429535      0.999948387     -22.9429526     0.0101600327     -110.991371
3.83                0.0101851557     -114.948476      0.999948131     -23.0030119      0.999948131      -23.003011     0.0101851538     -111.057111
3.84                0.0102102658     -115.002891      0.999947875     -23.0630703      0.999947875     -23.0630694     0.0102102638     -111.122824
3.85                0.0102353647     -115.057334      0.999947618     -23.1231286      0.999947618     -23.1231278     0.0102353628     -111.188508
3.86                0.0102604525     -115.111804      0.999947361      -23.183187      0.999947361     -23.1831862     0.0102604506     -111.254165
3.87                0.0102855292     -115.166302      0.999947104     -23.2432453      0.999947104     -23.2432446     0.0102855272     -111.319795
3.88                0.0103105946     -115.220826      0.999946845     -23.3033037      0.999946845     -23.3033029     0.0103105926     -111.385398
3.89                0.0103356489     -115.275377      0.999946587      -23.363362      0.999946587     -23.3633613     0.0103356469     -111.450973
3.9                 0.0103606918     -115.329955      0.999946328     -23.4234203      0.999946328     -23.4234197     0.0103606898     -111.516522
3.91                0.0103857235     -115.384559      0.999946068     -23.4834787      0.999946068      -23.483478     0.0103857215     -111.582045
3.92                0.0104107439      -115.43919      0.999945808      -23.543537      0.999945808     -23.5435363     0.0104107419     -111.647541
3.93                0.0104357529     -115.493846      0.999945547     -23.6035952      0.999945547     -23.6035947     0.0104357509     -111.713011
3.94                0.0104607506     -115.548528      0.999945286     -23.6636535      0.999945286      -23.663653     0.0104607486     -111.778455
3.95                0.0104857369     -115.603236      0.999945024     -23.7237118      0.999945024     -23.7237113     0.0104857349     -111.843873
3.96                0.0105107118     -115.657969      0.999944762     -23.7837701      0.999944762     -23.7837696     0.0105107098     -111.909266
3.97                0.0105356752     -115.712727      0.999944499     -23.8438283      0.999944499     -23.8438278     0.0105356732     -111.974633
3.98                0.0105606271      -115.76751      0.999944236     -23.9038865      0.999944236     -23.9038861     0.0105606251     -112.039976
3.99                0.0105855675     -115.822318      0.999943972     -23.9639447      0.999943972     -23.9639443     0.0105855655     -112.105293
4                   0.0106104964     -115.877151      0.999943708     -24.0240029      0.999943708     -24.0240026     0.0106104944     -112.170585
4.01                0.0106354138     -115.932008      0.999943443     -24.0840611      0.999943443     -24.0840608     0.0106354117     -112.235853
4.02                0.0106603195     -115.986889      0.999943178     -24.1441193      0.999943178      -24.144119     0.0106603175     -112.301097
4.03                0.0106852136     -116.041795      0.999942912     -24.2041774      0.999942912     -24.2041771     0.0106852116     -112.366316
4.04                0.0107100961     -116.096724      0.999942646     -24.2642356      0.999942646     -24.2642353      0.010710094     -112.431512
4.05                0.0107349668     -116.151677      0.999942379     -24.3242937      0.999942379     -24.3242934     0.0107349648     -112.496683
4.06                0.0107598259     -116.206653      0.999942112     -24.3843518      0.999942112     -24.3843516     0.0107598239     -112.561831
4.07                0.0107846733     -116.261653      0.999941844     -24.4444099      0.999941844     -24.4444097     0.0107846712     -112.626955
4.08                0.0108095088     -116.316676      0.999941576     -24.5044679      0.999941576     -24.5044678     0.0108095068     -112.692056
4.09                0.0108343326     -116.371722      0.999941308      -24.564526      0.999941308     -24.5645258     0.0108343306     -112.757134
4.1                 0.0108591446     -116.426791      0.999941038      -24.624584      0.999941038     -24.6245839     0.0108591426     -112.822189
4.11                0.0108839447     -116.481883      0.999940769      -24.684642      0.999940769     -24.6846419     0.0108839427     -112.887221
4.12                 0.010908733     -116.536997      0.999940499     -24.7446999      0.999940499     -24.7446999      0.010908731      -112.95223
4.13                0.0109335093     -116.592133      0.999940228     -24.8047579      0.999940228     -24.8047578     0.0109335073     -113.017217
4.14                0.0109582738     -116.647292      0.999939957     -24.8648158      0.999939957     -24.8648158     0.0109582718     -113.082181
4.15                0.0109830262     -116.702472      0.999939685     -24.9248737      0.999939685     -24.9248737     0.0109830242     -113.147123
4.16                0.0110077667     -116.757675      0.999939413     -24.9849316      0.999939413     -24.9849316     0.0110077647     -113.212043
4.17                0.0110324952     -116.812899      0.999939141     -25.0449894      0.999939141     -25.0449895     0.0110324932     -113.276942
4.18                0.0110572116     -116.868145      0.999938868     -25.1050473      0.999938868     -25.1050474     0.0110572096     -113.341818
4.19                0.0110819159     -116.923412      0.999938594     -25.1651051      0.999938594     -25.1651052     0.0110819139     -113.406673
4.2                 0.0111066082       -116.9787       0.99993832     -25.2251629       0.99993832      -25.225163     0.0111066062     -113.471507
4.21                0.0111312883      -117.03401      0.999938046     -25.2852206      0.999938046     -25.2852208     0.0111312863     -113.536319
4.22                0.0111559562      -117.08934      0.999937771     -25.3452783      0.999937771     -25.3452785     0.0111559543     -113.601111
4.23                 0.011180612     -117.144691      0.999937495      -25.405336      0.999937495     -25.4053362     0.0111806101     -113.665881
4.24                0.0112052556     -117.200063       0.99993722     -25.4653937       0.99993722     -25.4653939     0.0112052537     -113.730631
4.25                0.0112298869     -117.255456      0.999936943     -25.5254513      0.999936943     -25.5254516      0.011229885      -113.79536
4.26                 0.011254506     -117.310868      0.999936666      -25.585509      0.999936666     -25.5855092     0.0112545041     -113.860068
4.27                0.0112791128     -117.366301      0.999936389     -25.6455665      0.999936389     -25.6455668     0.0112791108     -113.924756
4.28                0.0113037072     -117.421754      0.999936111     -25.7056241      0.999936111     -25.7056244     0.0113037053     -113.989424
4.29                0.0113282893     -117.477227      0.999935833     -25.7656816      0.999935833     -25.7656819     0.0113282874     -114.054072
4.3                  0.011352859     -117.532719      0.999935555     -25.8257391      0.999935555     -25.8257395     0.0113528572       -114.1187
4.31                0.0113774164     -117.588232      0.999935275     -25.8857966      0.999935275     -25.8857969     0.0113774145     -114.183308
4.32                0.0114019613     -117.643763      0.999934996      -25.945854      0.999934996     -25.9458544     0.0114019594     -114.247896
4.33                0.0114264937     -117.699315      0.999934716     -26.0059114      0.999934716     -26.0059118     0.0114264918     -114.312465
4.34                0.0114510136     -117.754885      0.999934435     -26.0659688      0.999934435     -26.0659692     0.0114510118     -114.377014
4.35                0.0114755211     -117.810474      0.999934154     -26.1260261      0.999934154     -26.1260265     0.0114755192     -114.441545
4.36                0.0115000159     -117.866083      0.999933873     -26.1860834      0.999933873     -26.1860839     0.0115000141     -114.506056
4.37                0.0115244982      -117.92171      0.999933591     -26.2461407      0.999933591     -26.2461411     0.0115244964     -114.570548
4.38                 0.011548968     -117.977356      0.999933309     -26.3061979      0.999933309     -26.3061984     0.0115489662     -114.635021
4.39                 0.011573425      -118.03302      0.999933026     -26.3662551      0.999933026     -26.3662556     0.0115734233     -114.699475
4.4                 0.0115978695     -118.088703      0.999932743     -26.4263123      0.999932743     -26.4263128     0.0115978677     -114.763911
4.41                0.0116223012     -118.144405      0.999932459     -26.4863694      0.999932459     -26.4863699     0.0116222995     -114.828329
4.42                0.0116467203     -118.200124      0.999932175     -26.5464265      0.999932175     -26.5464271     0.0116467185     -114.892728
4.43                0.0116711266     -118.255862       0.99993189     -26.6064835       0.99993189     -26.6064841     0.0116711248     -114.957109
4.44                0.0116955201     -118.311617      0.999931605     -26.6665405      0.999931605     -26.6665412     0.0116955184     -115.021471
4.45                0.0117199009     -118.367391       0.99993132     -26.7265975       0.99993132     -26.7265982     0.0117198992     -115.085816
4.46                0.0117442688     -118.423182      0.999931034     -26.7866545      0.999931034     -26.7866551     0.0117442671     -115.150143
4.47                0.0117686239      -118.47899      0.999930748     -26.8467114      0.999930748      -26.846712     0.0117686222     -115.214452
4.48                0.0117929661     -118.534816      0.999930461     -26.9067682      0.999930461     -26.9067689     0.0117929645     -115.278743