! TOUCHSTONE file generated by CST MICROWAVE STUDIO
! Date and time: Fri Apr 21 18:09:45 2023
! Project name: airline_sim.cst
! Header version: 2018
! Port assignment regex: !\s*Touchstone port\s*([0-9]+)\s*=\s*(CST MWS port|CST DS port)\s*([0-9]+|Zmin|Zmax)\s*\(\"(.*)\"\)(\s*mode\s*([0-9]+))?.*
! Touchstone port assignment:
! Touchstone port 1 = CST MWS port 1 ("")
! Touchstone port 2 = CST MWS port 2 ("")
# GHz S MA R 50
2.5                  0.149331777     -113.447316      0.988746455     -23.3096756      0.988746282     -23.3096828       0.14933166     -113.182763
2.51                 0.149886861     -113.538535      0.988662302     -23.4014749      0.988662132      -23.401482      0.149886743     -113.275144
2.52                 0.150441472     -113.629743      0.988577903     -23.4932594      0.988577735     -23.4932665      0.150441352     -113.367506
2.53                 0.150995607      -113.72094      0.988493257     -23.5850293      0.988493092     -23.5850362      0.150995487     -113.459849
2.54                 0.151549266     -113.812128      0.988408367     -23.6767843      0.988408205     -23.6767913      0.151549145     -113.552173
2.55                 0.152102447     -113.903304      0.988323234     -23.7685246      0.988323074     -23.7685314      0.152102324     -113.644477
2.56                 0.152655147      -113.99447      0.988237857     -23.8602499        0.9882377     -23.8602567      0.152655024     -113.736763
2.57                 0.153207367     -114.085625      0.988152239     -23.9519603      0.988152084     -23.9519671      0.153207242     -113.829029
2.58                 0.153759103     -114.176769       0.98806638     -24.0436558      0.988066227     -24.0436625      0.153758978     -113.921277
2.59                 0.154310355     -114.267902      0.987980281     -24.1353362      0.987980131     -24.1353428      0.154310229     -114.013505
2.6                  0.154861121     -114.359023      0.987893943     -24.2270015      0.987893796     -24.2270081      0.154860994     -114.105714
2.61                   0.1554114     -114.450134      0.987807368     -24.3186517      0.987807223     -24.3186582      0.155411272     -114.197904
2.62                  0.15596119     -114.541233      0.987720556     -24.4102867      0.987720413     -24.4102932      0.155961061     -114.290074
2.63                 0.156510489     -114.632321      0.987633508     -24.5019064      0.987633367     -24.5019129       0.15651036     -114.382226
2.64                 0.157059297     -114.723397      0.987546225     -24.5935109      0.987546086     -24.5935173      0.157059167     -114.474358
2.65                 0.157607611     -114.814461      0.987458708     -24.6851001      0.987458572     -24.6851064       0.15760748     -114.566472
2.66                  0.15815543     -114.905514      0.987370958     -24.7766738      0.987370824       -24.77668      0.158155298     -114.658566
2.67                 0.158702753     -114.996555      0.987282977     -24.8682321      0.987282845     -24.8682383       0.15870262     -114.750641
2.68                 0.159249577     -115.087585      0.987194764     -24.9597749      0.987194635     -24.9597811      0.159249444     -114.842697
2.69                 0.159795903     -115.178602      0.987106322     -25.0513022      0.987106195     -25.0513083      0.159795769     -114.934733
2.7                  0.160341727     -115.269607      0.987017651     -25.1428139      0.987017526       -25.14282      0.160341592     -115.026751
2.71                 0.160887049       -115.3606      0.986928752       -25.23431       0.98692863      -25.234316      0.160886914     -115.118749
2.72                 0.161431867     -115.451581      0.986839627     -25.3257904      0.986839506     -25.3257963      0.161431731     -115.210728
2.73                  0.16197618     -115.542549      0.986750275     -25.4172551      0.986750157     -25.4172609      0.161976044     -115.302688
2.74                 0.162519987     -115.633505      0.986660699      -25.508704      0.986660583     -25.5087098      0.162519849     -115.394629
2.75                 0.163063285     -115.724448      0.986570899      -25.600137      0.986570785     -25.6001428      0.163063147      -115.48655
2.76                 0.163606073     -115.815379      0.986480877     -25.6915542      0.986480764     -25.6915599      0.163605935     -115.578452
2.77                  0.16414835     -115.906297      0.986390632     -25.7829555      0.986390522     -25.7829612      0.164148211     -115.670335
2.78                 0.164690115     -115.997203      0.986300167     -25.8743408      0.986300059     -25.8743464      0.164689976     -115.762199
2.79                 0.165231366     -116.088096      0.986209482     -25.9657101      0.986209376     -25.9657157      0.165231226     -115.854043
2.8                  0.165772101     -116.178975      0.986118579     -26.0570634      0.986118475     -26.0570689      0.165771961     -115.945868
2.81                  0.16631232     -116.269842      0.986027458     -26.1484005      0.986027356      -26.148406      0.166312179     -116.037674
2.82                  0.16685202     -116.360696       0.98593612     -26.2397215       0.98593602     -26.2397269      0.166851879     -116.129461
2.83                 0.167391201     -116.451536      0.985844567     -26.3310263      0.985844469     -26.3310316      0.167391059     -116.221228
2.84                  0.16792986     -116.542364      0.985752799     -26.4223148      0.985752703     -26.4223201      0.167929718     -116.312975
2.85                 0.168467997     -116.633178      0.985660818     -26.5135871      0.985660723     -26.5135924      0.168467855     -116.404704
2.86                 0.169005611     -116.723978      0.985568624      -26.604843      0.985568532     -26.6048482      0.169005468     -116.496413
2.87                 0.169542699     -116.814765      0.985476219     -26.6960826      0.985476128     -26.6960877      0.169542555     -116.588103
2.88                  0.17007926     -116.905539      0.985383604     -26.7873057      0.985383515     -26.7873108      0.170079116     -116.679773
2.89                 0.170615293     -116.996299      0.985290779     -26.8785124      0.985290692     -26.8785175      0.170615149     -116.771424
2.9                  0.171150797     -117.087045      0.985197746     -26.9697025       0.98519766     -26.9697076      0.171150653     -116.863055
2.91                  0.17168577     -117.177778      0.985104506     -27.0608762      0.985104422     -27.0608811      0.171685625     -116.954668
2.92                 0.172220211     -117.268497      0.985011059     -27.1520332      0.985010977     -27.1520381      0.172220066      -117.04626
2.93                 0.172754118     -117.359202      0.984917407     -27.2431735      0.984917327     -27.2431784      0.172753973     -117.137833
2.94                 0.173287491     -117.449893      0.984823551     -27.3342972      0.984823473     -27.3343021      0.173287345     -117.229387
2.95                 0.173820327     -117.540569      0.984729493     -27.4254042      0.984729415      -27.425409      0.173820181     -117.320921
2.96                 0.174352625     -117.631232      0.984635232     -27.5164944      0.984635156     -27.5164992      0.174352479     -117.412436
2.97                 0.174884385     -117.721881       0.98454077     -27.6075678      0.984540696     -27.6075725      0.174884238     -117.503931
2.98                 0.175415604     -117.812515      0.984446108     -27.6986243      0.984446036      -27.698629      0.175415457     -117.595407
2.99                 0.175946281     -117.903135      0.984351248      -27.789664      0.984351177     -27.7896686      0.175946135     -117.686863
3                    0.176476416     -117.993741      0.984256189     -27.8806867       0.98425612     -27.8806912      0.176476269       -117.7783
3.01                 0.177006006     -118.084332      0.984160934     -27.9716924      0.984160866     -27.9716969      0.177005859     -117.869717
3.02                 0.177535051     -118.174909      0.984065483     -28.0626811      0.984065417     -28.0626856      0.177534903     -117.961114
3.03                 0.178063548     -118.265471      0.983969838     -28.1536528      0.983969773     -28.1536572      0.178063401     -118.052492
3.04                 0.178591498     -118.356018      0.983873999     -28.2446073      0.983873936     -28.2446117       0.17859135      -118.14385
3.05                 0.179118897     -118.446551      0.983777968     -28.3355447      0.983777906     -28.3355491       0.17911875     -118.235188
3.06                 0.179645746     -118.537069      0.983681745      -28.426465      0.983681685     -28.4264693      0.179645598     -118.326507
3.07                 0.180172043     -118.627572      0.983585332      -28.517368      0.983585273     -28.5173722      0.180171895     -118.417806
3.08                 0.180697786     -118.718061      0.983488729     -28.6082537      0.983488672     -28.6082579      0.180697638     -118.509086
3.09                 0.181222974     -118.808534      0.983391939     -28.6991222      0.983391883     -28.6991263      0.181222826     -118.600346
3.1                  0.181747606     -118.898992      0.983294961     -28.7899733      0.983294906     -28.7899774      0.181747458     -118.691586
3.11                 0.182271681     -118.989435      0.983197797      -28.880807      0.983197744     -28.8808111      0.182271533     -118.782806
3.12                 0.182795198     -119.079863      0.983100448     -28.9716233      0.983100396     -28.9716274      0.182795049     -118.874007
3.13                 0.183318154     -119.170276      0.983002916     -29.0624222      0.983002865     -29.0624262      0.183318005     -118.965188
3.14                 0.183840549     -119.260674        0.9829052     -29.1532035      0.982905151     -29.1532075      0.183840401     -119.056349
3.15                 0.184362382     -119.351056      0.982807303     -29.2439674      0.982807255     -29.2439713      0.184362233      -119.14749
3.16                 0.184883651     -119.441423      0.982709225     -29.3347136      0.982709178     -29.3347175      0.184883502     -119.238612
3.17                 0.185404355     -119.531774      0.982610967     -29.4254423      0.982610922     -29.4254461      0.185404206     -119.329713
3.18                 0.185924493      -119.62211      0.982512531     -29.5161533      0.982512487     -29.5161571      0.185924344     -119.420795
3.19                 0.186444063      -119.71243      0.982413918     -29.6068467      0.982413874     -29.6068504      0.186443915     -119.511857
3.2                  0.186963065     -119.802735      0.982315128     -29.6975223      0.982315086      -29.697526      0.186962916     -119.602899
3.21                 0.187481497     -119.893024      0.982216163     -29.7881801      0.982216122     -29.7881838      0.187481348     -119.693921
3.22                 0.187999357     -119.983298      0.982117023     -29.8788202      0.982116984     -29.8788238      0.187999209     -119.784923
3.23                 0.188516646     -120.073555      0.982017711     -29.9694425      0.982017672      -29.969446      0.188516497     -119.875906
3.24                  0.18903336     -120.163797      0.981918227     -30.0600468      0.981918189     -30.0600504      0.189033212     -119.966868
3.25                   0.1895495     -120.254023      0.981818571     -30.1506333      0.981818535     -30.1506368      0.189549352     -120.057811
3.26                 0.190065064     -120.344233      0.981718746     -30.2412019      0.981718711     -30.2412054      0.190064916     -120.148733
3.27                 0.190580051     -120.434426      0.981618752     -30.3317525      0.981618718     -30.3317559      0.190579903     -120.239635
3.28                 0.191094459     -120.524604       0.98151859      -30.422285      0.981518557     -30.4222884      0.191094311     -120.330518
3.29                 0.191608288     -120.614766      0.981418262     -30.5127996       0.98141823     -30.5128029       0.19160814      -120.42138
3.3                  0.192121535     -120.704912      0.981317768     -30.6032961      0.981317737     -30.6032994      0.192121388     -120.512223
3.31                 0.192634201     -120.795041       0.98121711     -30.6937744       0.98121708     -30.6937777      0.192634054     -120.603045
3.32                 0.193146284     -120.885154      0.981116289     -30.7842346       0.98111626     -30.7842379      0.193146137     -120.693847
3.33                 0.193657782     -120.975251      0.981015306     -30.8746767      0.981015277     -30.8746799      0.193657635     -120.784629
3.34                 0.194168695     -121.065331      0.980914161     -30.9651005      0.980914134     -30.9651037      0.194168548     -120.875391
3.35                 0.194679021     -121.155395      0.980812856     -31.0555061       0.98081283     -31.0555093      0.194678875     -120.966133
3.36                 0.195188759     -121.245443      0.980711393     -31.1458935      0.980711367     -31.1458966      0.195188613     -121.056855
3.37                 0.195697908     -121.335474      0.980609771     -31.2362625      0.980609747     -31.2362656      0.195697762     -121.147557
3.38                 0.196206467     -121.425488      0.980507993     -31.3266132       0.98050797     -31.3266162      0.196206322     -121.238238
3.39                 0.196714435     -121.515486       0.98040606     -31.4169455      0.980406037     -31.4169485       0.19671429       -121.3289
3.4                   0.19722181     -121.605467      0.980303972     -31.5072594      0.980303949     -31.5072624      0.197221665     -121.419541
3.41                 0.197728592     -121.695432       0.98020173     -31.5975549      0.980201709     -31.5975578      0.197728447     -121.510161
3.42                 0.198234779      -121.78538      0.980099336     -31.6878319      0.980099316     -31.6878348      0.198234634     -121.600762
3.43                  0.19874037     -121.875311      0.979996791     -31.7780904      0.979996771     -31.7780933      0.198740225     -121.691342
3.44                 0.199245364     -121.965225      0.979894096     -31.8683304      0.979894077     -31.8683332       0.19924522     -121.781903
3.45                  0.19974976     -122.055122      0.979791252     -31.9585518      0.979791234     -31.9585546      0.199749616     -121.872442
3.46                 0.200253557     -122.145002       0.97968826     -32.0487547      0.979688242     -32.0487574      0.200253413     -121.962962
3.47                 0.200756753     -122.234866      0.979585121     -32.1389389      0.979585104     -32.1389416       0.20075661     -122.053461
3.48                 0.201259348     -122.324712      0.979481836     -32.2291045      0.979481821     -32.2291072      0.201259205      -122.14394
3.49                 0.201761341     -122.414541      0.979378407     -32.3192514      0.979378392      -32.319254      0.201761198     -122.234399
3.5                  0.202262729     -122.504353      0.979274835     -32.4093796       0.97927482     -32.4093822      0.202262587     -122.324837
3.51                 0.202763514     -122.594148       0.97917112      -32.499489      0.979171106     -32.4994916      0.202763371     -122.415255
3.52                 0.203263692     -122.683926      0.979067264     -32.5895797      0.979067251     -32.5895822       0.20326355     -122.505652
3.53                 0.203763263     -122.773687      0.978963268     -32.6796516      0.978963255     -32.6796541      0.203763122     -122.596029
3.54                 0.204262227      -122.86343      0.978859132     -32.7697047       0.97885912     -32.7697071      0.204262086     -122.686386
3.55                 0.204760581     -122.953156      0.978754859     -32.8597389      0.978754848     -32.8597413       0.20476044     -122.776722
3.56                 0.205258325     -123.042865      0.978650449     -32.9497542      0.978650438     -32.9497566      0.205258185     -122.867038
3.57                 0.205755458     -123.132556      0.978545903     -33.0397506      0.978545893      -33.039753      0.205755318     -122.957333
3.58                 0.206251979      -123.22223      0.978441223     -33.1297281      0.978441214     -33.1297305       0.20625184     -123.047608
3.59                 0.206747887     -123.311886      0.978336409     -33.2196866        0.9783364      -33.219689      0.206747748     -123.137862
3.6                   0.20724318     -123.401525      0.978231463     -33.3096262      0.978231455     -33.3096285      0.207243041     -123.228096
3.61                 0.207737858     -123.491146      0.978126386     -33.3995467      0.978126378      -33.399549       0.20773772     -123.318309
3.62                  0.20823192      -123.58075      0.978021178     -33.4894482      0.978021171     -33.4894504      0.208231781     -123.408502
3.63                 0.208725364     -123.670336      0.977915841     -33.5793306      0.977915835     -33.5793328      0.208725226     -123.498674
3.64                 0.209218189     -123.759904      0.977810377     -33.6691939      0.977810371     -33.6691961      0.209218052     -123.588826
3.65                 0.209710395     -123.849455      0.977704786     -33.7590381       0.97770478     -33.7590402      0.209710258     -123.678957
3.66                 0.210201981     -123.938988      0.977599069     -33.8488632      0.977599063     -33.8488653      0.210201844     -123.769067
3.67                 0.210692945     -124.028503      0.977493227      -33.938669      0.977493222     -33.9386711      0.210692809     -123.859157
3.68                 0.211183286        -124.118      0.977387262     -34.0284557      0.977387258     -34.0284578       0.21118315     -123.949226
3.69                 0.211673004     -124.207479      0.977281175     -34.1182232      0.977281171     -34.1182252      0.211672869     -124.039275
3.7                  0.212162097     -124.296941      0.977174966     -34.2079714      0.977174962     -34.2079734      0.212161962     -124.129303
3.71                 0.212650565     -124.386385      0.977068637     -34.2977003      0.977068634     -34.2977023       0.21265043      -124.21931
3.72                 0.213138406      -124.47581       0.97696219       -34.38741      0.976962187     -34.3874119      0.213138272     -124.309297
3.73                 0.213625619     -124.565218      0.976855624     -34.4771003      0.976855622     -34.4771022      0.213625486     -124.399263
3.74                 0.214112205     -124.654607      0.976748942     -34.5667713       0.97674894     -34.5667731      0.214112072     -124.489208
3.75                  0.21459816     -124.743979      0.976642144     -34.6564229      0.976642142     -34.6564247      0.214598028     -124.579133
3.76                 0.215083485     -124.833332      0.976535231     -34.7460551       0.97653523     -34.7460569      0.215083353     -124.669037
3.77                 0.215568179     -124.922668      0.976428205     -34.8356679      0.976428204     -34.8356697      0.215568047      -124.75892
3.78                  0.21605224     -125.011985      0.976321067     -34.9252613      0.976321066     -34.9252631      0.216052109     -124.848783
3.79                 0.216535668     -125.101284      0.976213818     -35.0148352      0.976213817      -35.014837      0.216535537     -124.938624
3.8                  0.217018461     -125.190564      0.976106458     -35.1043897      0.976106458     -35.1043914      0.217018331     -125.028445
3.81                  0.21750062     -125.279827       0.97599899     -35.1939246       0.97599899     -35.1939263       0.21750049     -125.118245
3.82                 0.217982141     -125.369071      0.975891413       -35.28344      0.975891414     -35.2834417      0.217982012     -125.208025
3.83                 0.218463026     -125.458297       0.97578373     -35.3729359      0.975783731     -35.3729375      0.218462898     -125.297783
3.84                 0.218943273     -125.547504      0.975675942     -35.4624122      0.975675942     -35.4624138      0.218943145     -125.387521
3.85                 0.219422881     -125.636693      0.975568049      -35.551869      0.975568049     -35.5518705      0.219422753     -125.477238
3.86                 0.219901848     -125.725864      0.975460052     -35.6413061      0.975460053     -35.6413076      0.219901721     -125.566934
3.87                 0.220380175     -125.815016      0.975351953     -35.7307236      0.975351955     -35.7307251      0.220380049     -125.656609
3.88                  0.22085786      -125.90415      0.975243754     -35.8201214      0.975243755     -35.8201229      0.220857734     -125.746263
3.89                 0.221334902     -125.993265      0.975135454     -35.9094996      0.975135455      -35.909501      0.221334777     -125.835897
3.9                  0.221811301     -126.082362      0.975027055      -35.998858      0.975027057     -35.9988595      0.221811176      -125.92551
3.91                 0.222287055      -126.17144      0.974918558     -36.0881968       0.97491856     -36.0881982       0.22228693     -126.015101
3.92                 0.222762163     -126.260499      0.974809965     -36.1775159      0.974809967     -36.1775172      0.222762039     -126.104672
3.93                 0.223236625      -126.34954      0.974701276     -36.2668152      0.974701279     -36.2668165      0.223236502     -126.194222
3.94                  0.22371044     -126.438562      0.974592493     -36.3560947      0.974592496      -36.356096      0.223710318     -126.283751
3.95                 0.224183607     -126.527566      0.974483617     -36.4453545      0.974483619     -36.4453558      0.224183485     -126.373259
3.96                 0.224656125     -126.616551      0.974374648     -36.5345944      0.974374651     -36.5345957      0.224656003     -126.462746
3.97                 0.225127993     -126.705517      0.974265588     -36.6238145      0.974265591     -36.6238158      0.225127872     -126.552213
3.98                  0.22559921     -126.794464      0.974156439     -36.7130148      0.974156441     -36.7130161      0.225599089     -126.641658
3.99                 0.226069775     -126.883393        0.9740472     -36.8021953      0.974047203     -36.8021965      0.226069655     -126.731082
4                    0.226539688     -126.972303      0.973937874     -36.8913558      0.973937876      -36.891357      0.226539569     -126.820486
4.01                 0.227008948     -127.061194      0.973828461     -36.9804965      0.973828463     -36.9804977      0.227008829     -126.909868
4.02                 0.227477553     -127.150066      0.973718962     -37.0696173      0.973718965     -37.0696184      0.227477435     -126.999229
4.03                 0.227945504     -127.238919      0.973609379     -37.1587181      0.973609382     -37.1587192      0.227945386      -127.08857
4.04                 0.228412798     -127.327753      0.973499713      -37.247799      0.973499716     -37.2478001      0.228412681     -127.177889
4.05                 0.228879436     -127.416569      0.973389965       -37.33686      0.973389968      -37.336861      0.228879319     -127.267187
4.06                 0.229345416     -127.505365      0.973280136     -37.4259009      0.973280138      -37.425902        0.2293453     -127.356465
4.07                 0.229810737     -127.594142      0.973170226     -37.5149219      0.973170229     -37.5149229      0.229810622     -127.445721
4.08                 0.230275399     -127.682901      0.973060238     -37.6039229      0.973060241     -37.6039239      0.230275285     -127.534956
4.09                 0.230739402      -127.77164      0.972950173     -37.6929039      0.972950175     -37.6929048      0.230739287      -127.62417
4.1                  0.231202743     -127.860361       0.97284003     -37.7818648      0.972840033     -37.7818658      0.231202629     -127.713363
4.11                 0.231665422     -127.949062      0.972729812     -37.8708057      0.972729815     -37.8708066      0.231665309     -127.802535
4.12                 0.232127439     -128.037744       0.97261952     -37.9597265      0.972619523     -37.9597274      0.232127327     -127.891686
4.13                 0.232588793     -128.126407      0.972509155     -38.0486272      0.972509157     -38.0486281      0.232588681     -127.980816
4.14                 0.233049482     -128.215051      0.972398717     -38.1375079      0.972398719     -38.1375088      0.233049371     -128.069925
4.15                 0.233509507     -128.303676      0.972288209     -38.2263684      0.972288211     -38.2263693      0.233509396     -128.159013
4.16                 0.233968866     -128.392282       0.97217763     -38.3152089      0.972177632     -38.3152097      0.233968756      -128.24808
4.17                 0.234427558     -128.480868      0.972066983     -38.4040291      0.972066985     -38.4040299      0.234427448     -128.337125
4.18                 0.234885583     -128.569436      0.971956268     -38.4928293      0.971956269     -38.4928301      0.234885474      -128.42615
4.19                 0.235342939     -128.657984      0.971845486     -38.5816093      0.971845488       -38.58161      0.235342831     -128.515153
4.2                  0.235799627     -128.746512      0.971734639     -38.6703691       0.97173464     -38.6703698      0.235799519     -128.604135
4.21                 0.236255645     -128.835022      0.971623727     -38.7591087      0.971623729     -38.7591094      0.236255538     -128.693096
4.22                 0.236710993     -128.923512      0.971512753     -38.8478281      0.971512754     -38.8478288      0.236710886     -128.782036
4.23                 0.237165669     -129.011983      0.971401716     -38.9365274      0.971401717      -38.936528      0.237165563     -128.870955
4.24                 0.237619674     -129.100434      0.971290618     -39.0252064      0.971290619      -39.025207      0.237619569     -128.959853
4.25                 0.238073006     -129.188867       0.97117946     -39.1138652       0.97117946     -39.1138658      0.238072901     -129.048729
4.26                 0.238525664     -129.277279      0.971068243     -39.2025037      0.971068244     -39.2025043       0.23852556     -129.137584
4.27                 0.238977648     -129.365673      0.970956969      -39.291122      0.970956969     -39.2911226      0.238977544     -129.226419
4.28                 0.239428957     -129.454047      0.970845638       -39.37972      0.970845638     -39.3797205      0.239428854     -129.315232
4.29                  0.23987959     -129.542402      0.970734251     -39.4682977      0.970734251     -39.4682983      0.239879488     -129.404024
4.3                  0.240329547     -129.630737       0.97062281     -39.5568552      0.970622809     -39.5568557      0.240329446     -129.492794
4.31                 0.240778827     -129.719053      0.970511316     -39.6453923      0.970511315     -39.6453928      0.240778726     -129.581544
4.32                 0.241227429     -129.807349      0.970399769     -39.7339092      0.970399768     -39.7339097      0.241227328     -129.670272
4.33                 0.241675352     -129.895626      0.970288171     -39.8224057       0.97028817     -39.8224062      0.241675252     -129.758979
4.34                 0.242122596     -129.983883      0.970176524     -39.9108819      0.970176522     -39.9108824      0.242122496     -129.847665
4.35                 0.242569159     -130.072121      0.970064827     -39.9993378      0.970064825     -39.9993382      0.242569061      -129.93633
4.36                 0.243015042     -130.160339      0.969953083     -40.0877733      0.969953081     -40.0877737      0.243014944     -130.024974
4.37                 0.243460244     -130.248538      0.969841292     -40.1761885      0.969841289     -40.1761889      0.243460146     -130.113596
4.38                 0.243904763     -130.336717      0.969729455     -40.2645833      0.969729452     -40.2645837      0.243904666     -130.202197
4.39                 0.244348599     -130.424877      0.969617574     -40.3529578      0.969617571     -40.3529581      0.244348503     -130.290778
4.4                  0.244791752     -130.513017      0.969505649     -40.4413118      0.969505646     -40.4413122      0.244791657     -130.379336
4.41                 0.245234221     -130.601137      0.969393683     -40.5296455      0.969393679     -40.5296459      0.245234126     -130.467874
4.42                 0.245676004     -130.689238      0.969281674     -40.6179588       0.96928167     -40.6179591       0.24567591      -130.55639
4.43                 0.246117102     -130.777319      0.969169626     -40.7062517      0.969169622      -40.706252      0.246117009     -130.644886
4.44                 0.246557514     -130.865381      0.969057539     -40.7945242      0.969057534     -40.7945245      0.246557421      -130.73336
4.45                 0.246997239     -130.953423      0.968945414     -40.8827763      0.968945409     -40.8827766      0.246997146     -130.821813
4.46                 0.247436276     -131.041445      0.968833252     -40.9710079      0.968833246     -40.9710082      0.247436184     -130.910244
4.47                 0.247874624     -131.129448      0.968721054     -41.0592192      0.968721048     -41.0592194      0.247874533     -130.998654
4.48                 0.248312284     -131.217431      0.968608821       -41.14741      0.968608815     -41.1474102      0.248312193     -131.087044